 *******************************************************************************
 ** Site#: 20773        For non-commercial use only     Version 16.230L 64BITS**
 *******************************************************************************
 ** Cite this program as: MOPAC2016, Version: 16.230L, James J. P. Stewart,   **
 ** Stewart Computational Chemistry, web: HTTP://OpenMOPAC.net. Days left: 252**
 *******************************************************************************
 **                                                                           **
 **                                MOPAC2016                                  **
 **                                                                           **
 *******************************************************************************

                              PM7 CALCULATION RESULTS


 *******************************************************************************
 *  CALCULATION DONE:                                Fri Dec  9 17:44:47 2016  *
 *  PM7        - The PM7 Hamiltonian to be used
 *  OPT        - OPTIMIZE COORDINATES OF ALL ATOMS
 *  XYZ        - CARTESIAN COORDINATE SYSTEM TO BE USED
 *  T=         - A TIME OF 172800.0 SECONDS REQUESTED
 *  DUMP=N     - RESTART FILE WRITTEN EVERY  7200.000 SECONDS
 *******************************************************************************
 PM7 OPT XYZ
 Optimization of structure given as argument

   ATOM   CHEMICAL          X               Y               Z
  NUMBER   SYMBOL      (ANGSTROMS)     (ANGSTROMS)     (ANGSTROMS)
 
     1       C         -0.92950000  *  -1.60350000  *  -0.00190000  *
     2       C          0.46430000  *  -1.60350000  *  -0.00190000  *
     3       C          1.16440000  *  -0.39950000  *  -0.00190000  *
     4       C          0.47130000  *   0.81380000  *  -0.00350000  *
     5       C         -0.92580000  *   0.81190000  *   0.00160000  *
     6       C         -1.62240000  *  -0.39420000  *   0.00170000  *
     7       H         -1.47460000  *  -2.54410000  *  -0.00490000  *
     8       H          1.00750000  *  -2.54650000  *  -0.00290000  *
     9       H          2.25170000  *  -0.40440000  *  -0.00050000  *
    10       H         -1.47080000  *   1.75260000  *   0.00580000  *
    11       H         -2.71070000  *  -0.39150000  *   0.00360000  *
    12       C          1.22000000  *   2.10370000  *   0.00290000  *
    13       H          1.43650000  *   2.42350000  *   1.03390000  *
    14       H          2.18220000  *   2.02910000  *  -0.52220000  *
    15       H          0.65660000  *   2.91590000  *  -0.47670000  *
 


          CARTESIAN COORDINATES 

    NO.       ATOM         X         Y         Z

     1         C       -0.9295   -1.6035   -0.0019
     2         C        0.4643   -1.6035   -0.0019
     3         C        1.1644   -0.3995   -0.0019
     4         C        0.4713    0.8138   -0.0035
     5         C       -0.9258    0.8119    0.0016
     6         C       -1.6224   -0.3942    0.0017
     7         H       -1.4746   -2.5441   -0.0049
     8         H        1.0075   -2.5465   -0.0029
     9         H        2.2517   -0.4044   -0.0005
    10         H       -1.4708    1.7526    0.0058
    11         H       -2.7107   -0.3915    0.0036
    12         C        1.2200    2.1037    0.0029
    13         H        1.4365    2.4235    1.0339
    14         H        2.1822    2.0291   -0.5222
    15         H        0.6566    2.9159   -0.4767

 General Reference for PM7:
 "Optimization of Parameters for Semiempirical Methods VI: More Modifications to the 
 NDDO Approximations and Re-optimization of Parameters", J. J. P. Stewart, J. Mol. Mod., 1:32, 19 (2013)
 http://www.springerlink.com/openurl.asp?genre=article&id=doi:10.1007/s00894-012-1667-x

           Empirical Formula: C7 H8  =    15 atoms



      MOLECULAR POINT GROUP   :   Cs  


      RHF CALCULATION, NO. OF DOUBLY OCCUPIED LEVELS = 18


          Geometry optimization using EF

     GRADIENT =  0.26372  IS LESS THAN CUTOFF =  1.00000



 -------------------------------------------------------------------------------
 PM7 OPT XYZ
 Optimization of structure given as argument



     GRADIENTS WERE INITIALLY ACCEPTABLY SMALL                
     SCF FIELD WAS ACHIEVED                                   


                              PM7 CALCULATION
                                                       MOPAC2016 (Version: 16.230L)
                                                       Fri Dec  9 17:44:47 2016
                                                       No. of days remaining = 252




          FINAL HEAT OF FORMATION =         13.19856 KCAL/MOL =      55.22278 KJ/MOL


          TOTAL ENERGY            =       -967.72238 EV
          ELECTRONIC ENERGY       =      -4274.99573 EV  POINT GROUP:     Cs  
          CORE-CORE REPULSION     =       3307.27334 EV
          COSMO AREA              =        138.31 SQUARE ANGSTROMS
          COSMO VOLUME            =        129.48 CUBIC ANGSTROMS

          GRADIENT NORM           =          0.26372
          IONIZATION POTENTIAL    =          9.425825 EV
          HOMO LUMO ENERGIES (EV) =         -9.426  0.317
          NO. OF FILLED LEVELS    =         18
          MOLECULAR WEIGHT        =         92.1402

          MOLECULAR DIMENSIONS (Angstroms)

            Atom       Atom       Distance
            H    15    H     7     5.88015
            H    11    H     9     4.62953
            H    14    H    13     1.58339


          SCF CALCULATIONS        =          1
 
          WALL-CLOCK TIME         =          0.070 SECONDS
          COMPUTATION TIME        =          0.128 SECONDS




   ATOM   CHEMICAL          X               Y               Z
  NUMBER   SYMBOL      (ANGSTROMS)     (ANGSTROMS)     (ANGSTROMS)
 
     1       C         -0.92950000  *  -1.60350000  *  -0.00190000  *
     2       C          0.46430000  *  -1.60350000  *  -0.00190000  *
     3       C          1.16440000  *  -0.39950000  *  -0.00190000  *
     4       C          0.47130000  *   0.81380000  *  -0.00350000  *
     5       C         -0.92580000  *   0.81190000  *   0.00160000  *
     6       C         -1.62240000  *  -0.39420000  *   0.00170000  *
     7       H         -1.47460000  *  -2.54410000  *  -0.00490000  *
     8       H          1.00750000  *  -2.54650000  *  -0.00290000  *
     9       H          2.25170000  *  -0.40440000  *  -0.00050000  *
    10       H         -1.47080000  *   1.75260000  *   0.00580000  *
    11       H         -2.71070000  *  -0.39150000  *   0.00360000  *
    12       C          1.22000000  *   2.10370000  *   0.00290000  *
    13       H          1.43650000  *   2.42350000  *   1.03390000  *
    14       H          2.18220000  *   2.02910000  *  -0.52220000  *
    15       H          0.65660000  *   2.91590000  *  -0.47670000  *

                             CARTESIAN COORDINATES

   1    C       -0.929500000    -1.603500000    -0.001900000
   2    C        0.464300000    -1.603500000    -0.001900000
   3    C        1.164400000    -0.399500000    -0.001900000
   4    C        0.471300000     0.813800000    -0.003500000
   5    C       -0.925800000     0.811900000     0.001600000
   6    C       -1.622400000    -0.394200000     0.001700000
   7    H       -1.474600000    -2.544100000    -0.004900000
   8    H        1.007500000    -2.546500000    -0.002900000
   9    H        2.251700000    -0.404400000    -0.000500000
  10    H       -1.470800000     1.752600000     0.005800000
  11    H       -2.710700000    -0.391500000     0.003600000
  12    C        1.220000000     2.103700000     0.002900000
  13    H        1.436500000     2.423500000     1.033900000
  14    H        2.182200000     2.029100000    -0.522200000
  15    H        0.656600000     2.915900000    -0.476700000


           Empirical Formula: C7 H8  =    15 atoms



      MOLECULAR POINT GROUP   :   Cs  


                  EIGENVALUES  
 -30.48976 -27.21521 -25.76590 -23.61740 -20.99452 -20.12904 -17.41776 -15.62208
 -15.20496 -14.70148 -14.18463 -13.89248 -13.22242 -12.83789 -11.90894 -11.73398
  -9.76129  -9.42582   0.31749   0.36224   2.66146   4.02348   4.45454   4.91713
   5.07982   5.34175   5.37124   5.55395   5.70152   5.79445   5.97645   6.20459
   6.29635   6.33149   6.43172   6.76742


              NET ATOMIC CHARGES AND DIPOLE CONTRIBUTIONS

  ATOM NO.   TYPE          CHARGE      No. of ELECS.   s-Pop       p-Pop       
    1          C          -0.173026        4.1730     1.08097     3.09205
    2          C          -0.129839        4.1298     1.08368     3.04616
    3          C          -0.190441        4.1904     1.08280     3.10764
    4          C           0.049110        3.9509     1.06780     2.88309
    5          C          -0.190244        4.1902     1.08277     3.10747
    6          C          -0.129869        4.1299     1.08369     3.04617
    7          H           0.149330        0.8507     0.85067
    8          H           0.147023        0.8530     0.85298
    9          H           0.151188        0.8488     0.84881
   10          H           0.151134        0.8489     0.84887
   11          H           0.147041        0.8530     0.85296
   12          C          -0.457701        4.4577     1.04984     3.40786
   13          H           0.162423        0.8376     0.83758
   14          H           0.157088        0.8429     0.84291
   15          H           0.156782        0.8432     0.84322
 DIPOLE           X         Y         Z       TOTAL
 POINT-CHG.     0.273     0.466     0.049     0.542
 HYBRID         0.053     0.090     0.009     0.104
 SUM            0.326     0.555     0.058     0.647


          ATOMIC ORBITAL ELECTRON POPULATIONS

     Atom    s        px        py        pz   
    1  C   1.08097   1.01131   1.05508   1.02566
    2  C   1.08368   1.00914   1.05178   0.98523
    3  C   1.08280   1.08088   0.98947   1.03728
    4  C   1.06780   0.97173   0.96159   0.94977
    5  C   1.08277   1.01148   1.05878   1.03722
    6  C   1.08369   1.07464   0.98631   0.98523
    7  H   0.85067
    8  H   0.85298
    9  H   0.84881
   10  H   0.84887
   11  H   0.85296
   12  C   1.04984   1.15067   1.07735   1.17984
   13  H   0.83758
   14  H   0.84291
   15  H   0.84322

 **********************
 *                    *
 * JOB ENDED NORMALLY *
 *                    *
 **********************



 TOTAL JOB TIME:             0.07 SECONDS

 == MOPAC DONE ==
