 *******************************************************************************
 ** Site#: 20773        For non-commercial use only     Version 16.230L 64BITS**
 *******************************************************************************
 ** Cite this program as: MOPAC2016, Version: 16.230L, James J. P. Stewart,   **
 ** Stewart Computational Chemistry, web: HTTP://OpenMOPAC.net. Days left: 239**
 *******************************************************************************
 **                                                                           **
 **                                MOPAC2016                                  **
 **                                                                           **
 *******************************************************************************

                              PM7 CALCULATION RESULTS


 *******************************************************************************
 *  CALCULATION DONE:                                Thu Dec 22 13:35:27 2016  *
 *  PM7        - The PM7 Hamiltonian to be used
 *  OPT        - OPTIMIZE COORDINATES OF ALL ATOMS
 *  XYZ        - CARTESIAN COORDINATE SYSTEM TO BE USED
 *  T=         - A TIME OF 172800.0 SECONDS REQUESTED
 *  DUMP=N     - RESTART FILE WRITTEN EVERY  7200.000 SECONDS
 *******************************************************************************
 PM7 OPT XYZ
 Optimization of structure given as argument

   ATOM   CHEMICAL          X               Y               Z
  NUMBER   SYMBOL      (ANGSTROMS)     (ANGSTROMS)     (ANGSTROMS)
 
     1       C         -0.92850000  *  -1.61350000  *  -0.00190000  *
     2       C          0.46430000  *  -1.61350000  *  -0.00190000  *
     3       C          1.16440000  *  -0.38950000  *  -0.00190000  *
     4       C          0.47130000  *   0.81380000  *  -0.00350000  *
     5       C         -0.92580000  *   0.81190000  *   0.00160000  *
     6       C         -1.62240000  *  -0.39420000  *   0.00170000  *
     7       H         -1.47460000  *  -2.54410000  *  -0.00490000  *
     8       H          1.00750000  *  -2.54650000  *  -0.00290000  *
     9       H          2.25170000  *  -0.40440000  *  -0.00050000  *
    10       H         -1.47080000  *   1.75260000  *   0.00580000  *
    11       H         -2.71070000  *  -0.39150000  *   0.00360000  *
    12       C          1.22000000  *   2.10370000  *   0.00290000  *
    13       H          1.43650000  *   2.42350000  *   1.03390000  *
    14       H          2.18220000  *   2.02910000  *  -0.52220000  *
    15       H          0.65660000  *   2.91590000  *  -0.47670000  *
 


          CARTESIAN COORDINATES 

    NO.       ATOM         X         Y         Z

     1         C       -0.9285   -1.6135   -0.0019
     2         C        0.4643   -1.6135   -0.0019
     3         C        1.1644   -0.3895   -0.0019
     4         C        0.4713    0.8138   -0.0035
     5         C       -0.9258    0.8119    0.0016
     6         C       -1.6224   -0.3942    0.0017
     7         H       -1.4746   -2.5441   -0.0049
     8         H        1.0075   -2.5465   -0.0029
     9         H        2.2517   -0.4044   -0.0005
    10         H       -1.4708    1.7526    0.0058
    11         H       -2.7107   -0.3915    0.0036
    12         C        1.2200    2.1037    0.0029
    13         H        1.4365    2.4235    1.0339
    14         H        2.1822    2.0291   -0.5222
    15         H        0.6566    2.9159   -0.4767

 General Reference for PM7:
 "Optimization of Parameters for Semiempirical Methods VI: More Modifications to the 
 NDDO Approximations and Re-optimization of Parameters", J. J. P. Stewart, J. Mol. Mod., 1:32, 19 (2013)
 http://www.springerlink.com/openurl.asp?genre=article&id=doi:10.1007/s00894-012-1667-x

           Empirical Formula: C7 H8  =    15 atoms



      MOLECULAR POINT GROUP   :   Cs  


      RHF CALCULATION, NO. OF DOUBLY OCCUPIED LEVELS = 18


          Geometry optimization using EF

          DIAGONAL MATRIX USED AS START HESSIAN

 CYCLE:     1 TIME:   0.008 TIME LEFT:  2.00D  GRAD.:    32.205 HEAT:  13.45186
 CYCLE:     2 TIME:   0.023 TIME LEFT:  2.00D  GRAD.:    17.481 HEAT:  13.25862
 CYCLE:     3 TIME:   0.012 TIME LEFT:  2.00D  GRAD.:    10.917 HEAT:  13.23848
 CYCLE:     4 TIME:   0.008 TIME LEFT:  2.00D  GRAD.:     5.661 HEAT:  13.20777
 CYCLE:     5 TIME:   0.012 TIME LEFT:  2.00D  GRAD.:     0.992 HEAT:  13.19986

     GRADIENT =  0.99168  IS LESS THAN CUTOFF =  1.00000



 -------------------------------------------------------------------------------
 PM7 OPT XYZ
 Optimization of structure given as argument



     GEOMETRY OPTIMISED USING EIGENVECTOR FOLLOWING (EF).     
     SCF FIELD WAS ACHIEVED                                   


                              PM7 CALCULATION
                                                       MOPAC2016 (Version: 16.230L)
                                                       Thu Dec 22 13:35:27 2016
                                                       No. of days remaining = 239




          FINAL HEAT OF FORMATION =         13.19970 KCAL/MOL =      55.22755 KJ/MOL


          TOTAL ENERGY            =       -967.72233 EV
          ELECTRONIC ENERGY       =      -4274.76426 EV  POINT GROUP:     Cs  
          CORE-CORE REPULSION     =       3307.04193 EV
          COSMO AREA              =        138.15 SQUARE ANGSTROMS
          COSMO VOLUME            =        129.32 CUBIC ANGSTROMS

          GRADIENT NORM           =          0.99168
          IONIZATION POTENTIAL    =          9.426227 EV
          HOMO LUMO ENERGIES (EV) =         -9.426  0.317
          NO. OF FILLED LEVELS    =         18
          MOLECULAR WEIGHT        =         92.1402

          MOLECULAR DIMENSIONS (Angstroms)

            Atom       Atom       Distance
            H    15    H     7     5.88241
            H    11    H     9     4.62762
            H    14    H    13     1.58326


          SCF CALCULATIONS        =         12
 
          WALL-CLOCK TIME         =          0.082 SECONDS
          COMPUTATION TIME        =          0.232 SECONDS




   ATOM   CHEMICAL          X               Y               Z
  NUMBER   SYMBOL      (ANGSTROMS)     (ANGSTROMS)     (ANGSTROMS)
 
     1       C         -0.92844585  *  -1.60596541  *  -0.00179071  *
     2       C          0.46508880  *  -1.60499134  *  -0.00194413  *
     3       C          1.16417405  *  -0.39952852  *  -0.00196428  *
     4       C          0.47118183  *   0.81332163  *  -0.00354895  *
     5       C         -0.92642386  *   0.81031452  *   0.00157194  *
     6       C         -1.62162412  *  -0.39644120  *   0.00164015  *
     7       H         -1.47442514  *  -2.54645144  *  -0.00470803  *
     8       H          1.00941805  *  -2.54750751  *  -0.00281531  *
     9       H          2.25108161  *  -0.40381261  *  -0.00067281  *
    10       H         -1.47141535  *   1.75097664  *   0.00561215  *
    11       H         -2.70965361  *  -0.39312428  *   0.00363932  *
    12       C          1.21915421  *   2.10361407  *   0.00294241  *
    13       H          1.43615244  *   2.42351075  *   1.03400073  *
    14       H          2.18170642  *   2.02921651  *  -0.52198863  *
    15       H          0.65620854  *   2.91618663  *  -0.47664440  *

                             CARTESIAN COORDINATES

   1    C       -0.928445848    -1.605965411    -0.001790709
   2    C        0.465088797    -1.604991339    -0.001944132
   3    C        1.164174051    -0.399528523    -0.001964282
   4    C        0.471181834     0.813321626    -0.003548945
   5    C       -0.926423863     0.810314520     0.001571938
   6    C       -1.621624120    -0.396441196     0.001640147
   7    H       -1.474425144    -2.546451438    -0.004708030
   8    H        1.009418048    -2.547507512    -0.002815314
   9    H        2.251081607    -0.403812607    -0.000672813
  10    H       -1.471415347     1.750976645     0.005612146
  11    H       -2.709653611    -0.393124281     0.003639317
  12    C        1.219154212     2.103614069     0.002942415
  13    H        1.436152436     2.423510750     1.034000734
  14    H        2.181706415     2.029216513    -0.521988634
  15    H        0.656208537     2.916186626    -0.476644402


           Empirical Formula: C7 H8  =    15 atoms



      MOLECULAR POINT GROUP   :   Cs  


                  EIGENVALUES  
 -30.48603 -27.21330 -25.76250 -23.61726 -20.99412 -20.12856 -17.41763 -15.62066
 -15.20547 -14.69955 -14.18162 -13.89494 -13.22237 -12.83632 -11.90983 -11.73314
  -9.75907  -9.42623   0.31678   0.36257   2.66105   4.02414   4.45458   4.91714
   5.07965   5.34264   5.36948   5.55243   5.70042   5.79547   5.97581   6.20541
   6.29463   6.33277   6.43195   6.76632


              NET ATOMIC CHARGES AND DIPOLE CONTRIBUTIONS

  ATOM NO.   TYPE          CHARGE      No. of ELECS.   s-Pop       p-Pop       
    1          C          -0.172786        4.1728     1.08105     3.09173
    2          C          -0.129852        4.1299     1.08378     3.04607
    3          C          -0.190423        4.1904     1.08277     3.10766
    4          C           0.048902        3.9511     1.06777     2.88332
    5          C          -0.189984        4.1900     1.08291     3.10708
    6          C          -0.130130        4.1301     1.08365     3.04648
    7          H           0.149418        0.8506     0.85058
    8          H           0.147080        0.8529     0.85292
    9          H           0.151054        0.8489     0.84895
   10          H           0.151116        0.8489     0.84888
   11          H           0.146962        0.8530     0.85304
   12          C          -0.457609        4.4576     1.04984     3.40777
   13          H           0.162412        0.8376     0.83759
   14          H           0.157069        0.8429     0.84293
   15          H           0.156772        0.8432     0.84323
 DIPOLE           X         Y         Z       TOTAL
 POINT-CHG.     0.274     0.466     0.049     0.542
 HYBRID         0.053     0.091     0.009     0.105
 SUM            0.326     0.556     0.058     0.648


          ATOMIC ORBITAL ELECTRON POPULATIONS

     Atom    s        px        py        pz   
    1  C   1.08105   1.01128   1.05502   1.02543
    2  C   1.08378   1.00922   1.05157   0.98528
    3  C   1.08277   1.08094   0.98937   1.03734
    4  C   1.06777   0.97176   0.96164   0.94993
    5  C   1.08291   1.01154   1.05861   1.03693
    6  C   1.08365   1.07475   0.98628   0.98545
    7  H   0.85058
    8  H   0.85292
    9  H   0.84895
   10  H   0.84888
   11  H   0.85304
   12  C   1.04984   1.15070   1.07718   1.17989
   13  H   0.83759
   14  H   0.84293
   15  H   0.84323

 **********************
 *                    *
 * JOB ENDED NORMALLY *
 *                    *
 **********************



 TOTAL JOB TIME:             0.09 SECONDS

 == MOPAC DONE ==
