 *******************************************************************************
 ** Site#: 20773        For non-commercial use only     Version 16.230L 64BITS**
 *******************************************************************************
 ** Cite this program as: MOPAC2016, Version: 16.230L, James J. P. Stewart,   **
 ** Stewart Computational Chemistry, web: HTTP://OpenMOPAC.net. Days left: 288**
 *******************************************************************************
 **                                                                           **
 **                                MOPAC2016                                  **
 **                                                                           **
 *******************************************************************************

                              PM7 CALCULATION RESULTS


 *******************************************************************************
 *  CALCULATION DONE:                                Thu Nov  3 14:23:16 2016  *
 *  PM7        - The PM7 Hamiltonian to be used
 *  LET        - OVERRIDE SOME SAFETY CHECKS
 *  XYZ        - CARTESIAN COORDINATE SYSTEM TO BE USED
 *  FORCE      - FORCE CALCULATION SPECIFIED
 *  T=         - A TIME OF 172800.0 SECONDS REQUESTED
 *  DUMP=N     - RESTART FILE WRITTEN EVERY  7200.000 SECONDS
 *******************************************************************************
PM7 FORCE LET XYZ

 JOB
   ATOM   CHEMICAL          X               Y               Z
  NUMBER   SYMBOL      (ANGSTROMS)     (ANGSTROMS)     (ANGSTROMS)
 
     1       C          3.42441983  *   0.24163985  *   0.00112658  *
     2       C          4.81825126  *   0.24404593  *   0.00198224  *
     3       C          5.51627098  *   1.44932089  *  -0.00126885  *
     4       C          4.82107975  *   2.66134562  *  -0.00694911  *
     5       C          3.42394035  *   2.65705144  *  -0.00269819  *
     6       C          2.72941120  *   1.44980462  *   0.00064061  *
     7       H          2.88097947  *  -0.69986761  *   0.00067351  *
     8       H          5.36305129  *  -0.69800116  *   0.00422067  *
     9       H          6.60351330  *   1.44630793  *   0.00078999  *
    10       H          2.87735094  *   3.59684081  *  -0.00178742  *
    11       H          1.64109217  *   1.45056581  *   0.00188833  *
    12       C          5.56754103  *   3.95255903  *  -0.00407709  *
    13       H          5.78281905  *   4.27586578  *   1.02613173  *
    14       H          6.53019897  *   3.87801504  *  -0.52836046  *
    15       H          5.00300503  *   4.76230153  *  -0.48644832  *
 


          CARTESIAN COORDINATES 

    NO.       ATOM         X         Y         Z

     1         C        3.4244    0.2416    0.0011
     2         C        4.8183    0.2440    0.0020
     3         C        5.5163    1.4493   -0.0013
     4         C        4.8211    2.6613   -0.0069
     5         C        3.4239    2.6571   -0.0027
     6         C        2.7294    1.4498    0.0006
     7         H        2.8810   -0.6999    0.0007
     8         H        5.3631   -0.6980    0.0042
     9         H        6.6035    1.4463    0.0008
    10         H        2.8774    3.5968   -0.0018
    11         H        1.6411    1.4506    0.0019
    12         C        5.5675    3.9526   -0.0041
    13         H        5.7828    4.2759    1.0261
    14         H        6.5302    3.8780   -0.5284
    15         H        5.0030    4.7623   -0.4864

 General Reference for PM7:
 "Optimization of Parameters for Semiempirical Methods VI: More Modifications to the 
 NDDO Approximations and Re-optimization of Parameters", J. J. P. Stewart, J. Mol. Mod., 1:32, 19 (2013)
 http://www.springerlink.com/openurl.asp?genre=article&id=doi:10.1007/s00894-012-1667-x

           Empirical Formula: C7 H8  =    15 atoms



      MOLECULAR POINT GROUP   :   Cs  


      RHF CALCULATION, NO. OF DOUBLY OCCUPIED LEVELS = 18



          HEAT OF FORMATION =      13.198606 KCALS/MOLE


          CARTESIAN COORDINATE DERIVATIVES

   NUMBER  ATOM         X            Y            Z

     1       C      0.033901     0.008232    -0.041512
     2       C     -0.033499    -0.084508     0.027938
     3       C      0.038577     0.090936     0.015846
     4       C     -0.063309    -0.020094     0.041872
     5       C     -0.016294    -0.023895     0.010329
     6       C      0.028994     0.052222     0.031337
     7       H      0.002594    -0.001751    -0.053446
     8       H     -0.023297     0.003351    -0.020826
     9       H      0.034065    -0.007939     0.059648
    10       H     -0.000159    -0.021746     0.058652
    11       H     -0.028281     0.004642    -0.018467
    12       C      0.052521    -0.033476    -0.003386
    13       H      0.017628     0.036969    -0.008243
    14       H     -0.014538    -0.005183    -0.041971
    15       H     -0.028906     0.002237    -0.057774
 


          GRADIENT NORM =   0.24326


          TIME FOR SCF CALCULATION =    0.01

          TIME FOR DERIVATIVES     =    0.00

          MOLECULAR WEIGHT =   92.14



          ROTATIONAL CONSTANTS IN CM(-1)

          A =    0.18368907   B =    0.08513295   C =    0.05881425



           PRINCIPAL MOMENTS OF INERTIA IN UNITS OF 10**(-40)*GRAM-CM**2

          A =      152.3922   B =      328.8125   C =      475.9522


          ORIENTATION OF MOLECULE IN FORCE CALCULATION

    NO.       ATOM         X         Y         Z

     1          C      -0.9295   -1.6035   -0.0019
     2          C       0.4643   -1.6035   -0.0019
     3          C       1.1644   -0.3995   -0.0019
     4          C       0.4713    0.8138   -0.0035
     5          C      -0.9258    0.8119    0.0016
     6          C      -1.6224   -0.3942    0.0017
     7          H      -1.4746   -2.5441   -0.0049
     8          H       1.0075   -2.5465   -0.0029
     9          H       2.2517   -0.4044   -0.0005
    10          H      -1.4708    1.7526    0.0058
    11          H      -2.7107   -0.3915    0.0036
    12          C       1.2200    2.1037    0.0029
    13          H       1.4365    2.4235    1.0339
    14          H       2.1822    2.0291   -0.5222
    15          H       0.6566    2.9159   -0.4767


    FIRST DERIVATIVES WILL BE USED IN THE CALCULATION OF SECOND DERIVATIVES

          ESTIMATED TIME TO COMPLETE CALCULATION =        1.05 SECONDS

    FOR POINT-GROUP Cs   THERE ARE   2 UNIQUE SYMMETRY FUNCTIONS.

 STEP:   1 TIME =     0.01 SECS, INTEGRAL =      0.01 TIME LEFT: 172799.98
 STEP:   2 TIME =     0.02 SECS, INTEGRAL =      0.03 TIME LEFT: 172799.96
 STEP:   3 TIME =     0.02 SECS, INTEGRAL =      0.04 TIME LEFT: 172799.95
 STEP:   4 TIME =     0.02 SECS, INTEGRAL =      0.06 TIME LEFT: 172799.93
 STEP:   5 TIME =     0.02 SECS, INTEGRAL =      0.07 TIME LEFT: 172799.91
 STEP:   6 TIME =     0.02 SECS, INTEGRAL =      0.09 TIME LEFT: 172799.90
 STEP:   7 TIME =     0.01 SECS, INTEGRAL =      0.10 TIME LEFT: 172799.89
 STEP:   8 TIME =     0.02 SECS, INTEGRAL =      0.12 TIME LEFT: 172799.87
 STEP:   9 TIME =     0.02 SECS, INTEGRAL =      0.13 TIME LEFT: 172799.86
 STEP:  10 TIME =     0.02 SECS, INTEGRAL =      0.15 TIME LEFT: 172799.84
 STEP:  11 TIME =     0.02 SECS, INTEGRAL =      0.16 TIME LEFT: 172799.82
 STEP:  12 TIME =     0.02 SECS, INTEGRAL =      0.18 TIME LEFT: 172799.81
 STEP:  13                       INTEGRAL =      0.18 TIME LEFT: 172799.81
 STEP:  14                       INTEGRAL =      0.18 TIME LEFT: 172799.81
 STEP:  15                       INTEGRAL =      0.18 TIME LEFT: 172799.81
 STEP:  16                       INTEGRAL =      0.18 TIME LEFT: 172799.81
 STEP:  17                       INTEGRAL =      0.18 TIME LEFT: 172799.81
 STEP:  18                       INTEGRAL =      0.18 TIME LEFT: 172799.81
 STEP:  19 TIME =     0.01 SECS, INTEGRAL =      0.19 TIME LEFT: 172799.80
 STEP:  20 TIME =     0.02 SECS, INTEGRAL =      0.21 TIME LEFT: 172799.78
 STEP:  21 TIME =     0.02 SECS, INTEGRAL =      0.22 TIME LEFT: 172799.77
 STEP:  22 TIME =     0.01 SECS, INTEGRAL =      0.23 TIME LEFT: 172799.75
 STEP:  23 TIME =     0.02 SECS, INTEGRAL =      0.25 TIME LEFT: 172799.74
 STEP:  24 TIME =     0.02 SECS, INTEGRAL =      0.27 TIME LEFT: 172799.72
 STEP:  25 TIME =     0.01 SECS, INTEGRAL =      0.28 TIME LEFT: 172799.71
 STEP:  26 TIME =     0.02 SECS, INTEGRAL =      0.29 TIME LEFT: 172799.70
 STEP:  27 TIME =     0.01 SECS, INTEGRAL =      0.30 TIME LEFT: 172799.68
 STEP:  28                       INTEGRAL =      0.30 TIME LEFT: 172799.68
 STEP:  29                       INTEGRAL =      0.30 TIME LEFT: 172799.68
 STEP:  30                       INTEGRAL =      0.30 TIME LEFT: 172799.68
 STEP:  31                       INTEGRAL =      0.30 TIME LEFT: 172799.68
 STEP:  32                       INTEGRAL =      0.30 TIME LEFT: 172799.68
 STEP:  33                       INTEGRAL =      0.30 TIME LEFT: 172799.68
 STEP:  34 TIME =     0.02 SECS, INTEGRAL =      0.32 TIME LEFT: 172799.67
 STEP:  35 TIME =     0.02 SECS, INTEGRAL =      0.34 TIME LEFT: 172799.65
 STEP:  36 TIME =     0.01 SECS, INTEGRAL =      0.35 TIME LEFT: 172799.64
 STEP:  37 TIME =     0.02 SECS, INTEGRAL =      0.36 TIME LEFT: 172799.62
 STEP:  38 TIME =     0.02 SECS, INTEGRAL =      0.38 TIME LEFT: 172799.61
 STEP:  39 TIME =     0.01 SECS, INTEGRAL =      0.39 TIME LEFT: 172799.60
 STEP:  40 TIME =     0.02 SECS, INTEGRAL =      0.41 TIME LEFT: 172799.58
 STEP:  41 TIME =     0.01 SECS, INTEGRAL =      0.42 TIME LEFT: 172799.57
 STEP:  42 TIME =     0.02 SECS, INTEGRAL =      0.43 TIME LEFT: 172799.55
 STEP:  43                       INTEGRAL =      0.43 TIME LEFT: 172799.55
 STEP:  44                       INTEGRAL =      0.43 TIME LEFT: 172799.55
 STEP:  45                       INTEGRAL =      0.43 TIME LEFT: 172799.55

(To convert to Hartree/Bohr^2, multiply by (10^(-21) x N x a0^2)/(4.184 x 627.51) =  0.0642)


           FORCE MATRIX IN MILLIDYNES/ANGSTROM


                  C  1       C  2       C  3       C  4       C  5       C  6
 ------------------------------------------------------------------------------
     C    1  15.209944
     C    2   6.061649  15.258904
     C    3   2.387466   6.109952  15.157354
     C    4   1.752151   2.393919   5.864248  16.284646
     C    5   2.389085   1.720812   2.322692   5.875357  15.157354
     C    6   6.059257   2.407295   1.721972   2.394442   6.109952  15.258904
     H    7   3.479916   0.753988   0.092580   0.003066   0.092769   0.754400
     H    8   0.749405   3.475381   0.752763   0.098056   0.011581   0.094151
     H    9   0.094864   0.759663   3.477752   0.750659   0.090653   0.013325
     H   10   0.095191   0.013304   0.091113   0.750455   3.477971   0.759509
     H   11   0.749011   0.094454   0.011833   0.098230   0.752922   3.475245
     C   12   0.025257   0.095054   0.794316   3.866425   0.794437   0.095230
     H   13   0.003153   0.012938   0.019901   0.741780   0.019958   0.012886
     H   14   0.003861   0.006054   0.028645   0.723585   0.038936   0.010224
     H   15   0.004067   0.010185   0.039297   0.722478   0.028731   0.006018


                  H  7       H  8       H  9       H 10       H 11       C 12
 ------------------------------------------------------------------------------
     H    7   4.394220
     H    8   0.032997   4.384865
     H    9   0.007913   0.033962   4.395989
     H   10   0.007901   0.012886   0.008599   4.395989
     H   11   0.032983   0.008820   0.012627   0.033962   4.384865
     C   12   0.015070   0.011720   0.041104   0.041082   0.011745  11.630181
     H   13   0.002271   0.002020   0.008884   0.008689   0.002003   3.372585
     H   14   0.001781   0.001801   0.020378   0.003478   0.001887   3.410856
     H   15   0.001853   0.001889   0.003366   0.020354   0.001786   3.411864


                  H 13       H 14       H 15
 ------------------------------------------
     H   13   4.181827
     H   14   0.461999   4.213573
     H   15   0.461855   0.459766   4.213573


          HEAT OF FORMATION =      13.198606 KCALS/MOLE

          ZERO POINT ENERGY      75.964 KCAL/MOL

         NOTE: SYSTEM IS NOT A GROUND STATE, THEREFORE ZERO POINT
         ENERGY IS NOT MEANINGFULL. ZERO POINT ENERGY PRINTED
         DOES NOT INCLUDE THE  1 IMAGINARY FREQUENCIES


           NORMAL COORDINATE ANALYSIS (Total motion = 1 Angstrom)


   Root No.       1         2         3         4         5         6         7         8

                 1 A"      1 A'      2 A"      3 A"      2 A'      3 A'      4 A"      4 A'  

                 -51.4     191.3     340.4     349.3     443.9     524.7     608.5     619.6
  
           1   -0.0008   -0.0000    0.0153   -0.0041   -0.0008   -0.0460   -0.0375    0.0011
           2    0.0005   -0.0003   -0.0089    0.0024   -0.0014   -0.0794    0.0218    0.0020
           3    0.0000    0.0634   -0.0001    0.0000    0.0547   -0.0035    0.0001   -0.0289
           4   -0.0004   -0.0001    0.0157   -0.0040   -0.0008   -0.0493   -0.0264    0.0011
           5   -0.0007    0.0000    0.0190   -0.0049   -0.0003   -0.0020    0.1059   -0.0005
           6    0.0121    0.0022   -0.0124   -0.0570   -0.0441    0.0027    0.0001    0.0300
           7    0.0010   -0.0001   -0.0224    0.0059   -0.0009   -0.0500    0.0949    0.0010
           8   -0.0016    0.0001    0.0347   -0.0091   -0.0001    0.0112    0.0305   -0.0007
           9    0.0120   -0.0583    0.0132    0.0569   -0.0002   -0.0012   -0.0000   -0.0330
          10    0.0013    0.0002   -0.0428    0.0111    0.0007    0.0361    0.0316   -0.0006
          11   -0.0007    0.0004    0.0248   -0.0064    0.0010    0.0623   -0.0183   -0.0013
          12   -0.0000   -0.0389    0.0001   -0.0000    0.0761   -0.0007   -0.0001    0.0647
          13    0.0018    0.0000   -0.0412    0.0107    0.0004    0.0345    0.0207   -0.0012
          14   -0.0001    0.0000    0.0022   -0.0005   -0.0008   -0.0378   -0.0975    0.0006
          15   -0.0120   -0.0583   -0.0131   -0.0569   -0.0002   -0.0014   -0.0002   -0.0330
          16    0.0004    0.0001   -0.0087    0.0024    0.0000    0.0227   -0.1050   -0.0009
          17    0.0007   -0.0001   -0.0231    0.0058   -0.0008   -0.0438   -0.0297    0.0007
          18   -0.0121    0.0023    0.0124    0.0571   -0.0441    0.0026    0.0001    0.0300
          19   -0.0015   -0.0000    0.0364   -0.0097   -0.0008   -0.0437    0.0509    0.0010
          20    0.0009   -0.0006   -0.0211    0.0056   -0.0017   -0.0753   -0.0295    0.0021
          21    0.0000    0.1471   -0.0001    0.0000    0.1506   -0.0093   -0.0001   -0.1224
          22   -0.0018    0.0000    0.0397   -0.0105   -0.0003   -0.0067   -0.0559   -0.0002
          23   -0.0015    0.0001    0.0332   -0.0086    0.0001    0.0199    0.0804   -0.0012
          24    0.0216    0.0116   -0.0339   -0.1546   -0.1454    0.0094   -0.0001    0.0693
          25    0.0009   -0.0001   -0.0210    0.0054   -0.0008   -0.0473    0.0881    0.0011
          26   -0.0011   -0.0002    0.0619   -0.0157   -0.0016   -0.0409   -0.0068   -0.0007
          27    0.0211   -0.0985    0.0361    0.1534   -0.0505   -0.0026   -0.0005   -0.1734
          28    0.0014   -0.0004   -0.0643    0.0159   -0.0011   -0.0120    0.0496   -0.0016
          29   -0.0002   -0.0001   -0.0125    0.0034   -0.0013   -0.0614   -0.0731    0.0009
          30   -0.0211   -0.0984   -0.0359   -0.1535   -0.0505   -0.0027    0.0003   -0.1734
          31    0.0004    0.0001   -0.0090    0.0026   -0.0002    0.0206   -0.0975   -0.0008
          32    0.0023   -0.0000   -0.0509    0.0131    0.0001    0.0041    0.0086   -0.0008
          33   -0.0216    0.0117    0.0338    0.1546   -0.1454    0.0094    0.0003    0.0693
          34   -0.0028    0.0001    0.0605   -0.0158    0.0012    0.0476    0.0150   -0.0005
          35    0.0016    0.0000   -0.0351    0.0092    0.0020    0.0820   -0.0087   -0.0009
          36    0.0000    0.0650   -0.0001    0.0000   -0.0100    0.0010   -0.0000    0.0047
          37    0.2463   -0.0420    0.1069   -0.0273    0.0455    0.0503    0.0159    0.0368
          38   -0.1429   -0.0725   -0.0620    0.0159    0.0785    0.0867   -0.0092    0.0635
          39   -0.0004    0.0975   -0.0001    0.0000   -0.0458   -0.0024   -0.0000   -0.0260
          40   -0.1272    0.0213    0.0524   -0.0140   -0.0205    0.0459    0.0174   -0.0181
          41    0.0707    0.0351   -0.1310    0.0330   -0.0337    0.0779   -0.0028   -0.0305
          42   -0.2471    0.0997   -0.0060    0.0010   -0.0483    0.0022    0.0014   -0.0274
          43   -0.1239    0.0201    0.1398   -0.0356   -0.0191    0.0448    0.0110   -0.0175
          44    0.0750    0.0358    0.0195   -0.0042   -0.0345    0.0786   -0.0137   -0.0309
          45    0.2475    0.0996    0.0058   -0.0009   -0.0483    0.0022   -0.0014   -0.0274


   Root No.       9        10        11        12        13        14        15        16

                 5 A'      6 A'      5 A"      7 A'      6 A"      7 A"      8 A'      9 A'  

                 799.0     847.0     898.3     948.1    1016.6    1030.6    1038.4    1049.2
  
           1    0.0011   -0.0391   -0.0003    0.0008    0.0002    0.0116   -0.0013   -0.0205
           2    0.0019   -0.0674    0.0002    0.0014   -0.0001   -0.0067   -0.0021   -0.0354
           3   -0.0214   -0.0028    0.0000   -0.0364    0.0000    0.0001   -0.0508    0.0060
           4    0.0012   -0.0444    0.0001    0.0008   -0.0000   -0.0082   -0.0011   -0.0134
           5   -0.0018    0.0802    0.0001   -0.0017    0.0002    0.0057    0.0008    0.0017
           6   -0.0167   -0.0014   -0.0312   -0.0056   -0.0467    0.0006    0.0407   -0.0057
           7   -0.0001    0.0220    0.0002   -0.0012   -0.0003   -0.0189    0.0055    0.0891
           8   -0.0011    0.0353   -0.0003   -0.0003    0.0002    0.0175   -0.0018   -0.0324
           9   -0.0155   -0.0005   -0.0334    0.0357    0.0449   -0.0001   -0.0141    0.0047
          10   -0.0002   -0.0056   -0.0001    0.0006    0.0001    0.0135   -0.0014   -0.0166
          11   -0.0004   -0.0096    0.0001    0.0011   -0.0000   -0.0078   -0.0024   -0.0286
          12    0.0209    0.0049    0.0000   -0.0066   -0.0000   -0.0001   -0.0109   -0.0048
          13   -0.0009    0.0197    0.0005    0.0004   -0.0005   -0.0246   -0.0044   -0.0724
          14   -0.0006    0.0366   -0.0000   -0.0012    0.0002    0.0077    0.0039    0.0612
          15   -0.0155   -0.0005    0.0334    0.0357   -0.0449    0.0001   -0.0141    0.0049
          16   -0.0022    0.0916    0.0001   -0.0019   -0.0001   -0.0090    0.0014    0.0081
          17    0.0002    0.0013   -0.0002   -0.0002   -0.0001    0.0043   -0.0006   -0.0108
          18   -0.0167   -0.0016    0.0312   -0.0056    0.0467   -0.0004    0.0407   -0.0058
          19    0.0009   -0.0340   -0.0002    0.0007    0.0005    0.0160   -0.0013   -0.0200
          20    0.0010   -0.0588    0.0001    0.0005   -0.0003   -0.0093   -0.0028   -0.0344
          21    0.1930    0.0199    0.0000    0.2078    0.0000    0.0001    0.1983   -0.0225
          22   -0.0005    0.0085   -0.0005    0.0002    0.0009    0.0411   -0.0058   -0.0970
          23   -0.0027    0.1022   -0.0005   -0.0018    0.0005    0.0337   -0.0021   -0.0528
          24    0.1788    0.0153    0.2109    0.0306    0.2074   -0.0020   -0.1620    0.0206
          25   -0.0001    0.0188   -0.0001   -0.0009   -0.0001   -0.0161    0.0049    0.0802
          26    0.0001    0.0124    0.0016   -0.0010   -0.0015    0.0153   -0.0039   -0.0649
          27    0.0978   -0.0025    0.2212   -0.1757   -0.1956    0.0029    0.0448   -0.0155
          28    0.0004    0.0014   -0.0020   -0.0009    0.0018   -0.0212   -0.0057   -0.0962
          29   -0.0002    0.0225   -0.0004   -0.0010    0.0005    0.0063    0.0023    0.0374
          30    0.0978   -0.0025   -0.2212   -0.1757    0.1956   -0.0030    0.0449   -0.0152
          31   -0.0017    0.0845   -0.0004   -0.0016   -0.0005   -0.0089    0.0006    0.0024
          32   -0.0020    0.0581    0.0010   -0.0008   -0.0007   -0.0524   -0.0058   -0.1105
          33    0.1788    0.0152   -0.2109    0.0307   -0.2074    0.0022   -0.1620    0.0204
          34    0.0008   -0.0409    0.0001    0.0008    0.0004    0.0552    0.0013    0.0296
          35    0.0014   -0.0705   -0.0001    0.0015   -0.0003   -0.0320    0.0021    0.0510
          36    0.0078   -0.0020   -0.0000   -0.0190   -0.0000   -0.0002    0.0186    0.0019
          37    0.0321   -0.0441   -0.0024   -0.0526    0.0015   -0.0754    0.0467    0.0321
          38    0.0553   -0.0760    0.0014   -0.0906   -0.0009    0.0438    0.0806    0.0553
          39   -0.0204    0.0059    0.0000    0.0308   -0.0000   -0.0000   -0.0253   -0.0082
          40   -0.0149   -0.0360   -0.0006    0.0278    0.0012    0.0518   -0.0221    0.0226
          41   -0.0230   -0.0658   -0.0001    0.0423    0.0034    0.2847   -0.0319    0.0465
          42   -0.0230   -0.0029   -0.0014    0.0365    0.0014   -0.0031   -0.0295    0.0028
          43   -0.0126   -0.0393   -0.0002    0.0230   -0.0023   -0.2214   -0.0168    0.0291
          44   -0.0243   -0.0639    0.0006    0.0451   -0.0027   -0.1864   -0.0350    0.0427
          45   -0.0230   -0.0029    0.0014    0.0365   -0.0014    0.0031   -0.0295    0.0028


   Root No.      17        18        19        20        21        22        23        24

                10 A'      8 A"     11 A'      9 A"     12 A'     10 A"     13 A'     11 A"  

                1080.8    1174.0    1183.1    1214.9    1268.2    1276.8    1281.9    1328.7
  
           1    0.0011   -0.0333   -0.0281   -0.0027   -0.0001    0.0002   -0.0017    0.0413
           2    0.0020    0.0193   -0.0485    0.0015   -0.0002   -0.0001   -0.0030   -0.0240
           3    0.0093    0.0001   -0.0002    0.0000   -0.0000    0.0000    0.0001   -0.0001
           4   -0.0000    0.0304    0.0297    0.0078   -0.0071    0.0003   -0.0010   -0.0222
           5    0.0017    0.0039   -0.0263    0.0297    0.0037   -0.0011    0.0002   -0.0231
           6   -0.0137    0.0001   -0.0001    0.0001   -0.0000    0.0001   -0.0001   -0.0001
           7   -0.0044    0.0096    0.0154   -0.0303   -0.0070   -0.0009   -0.0019    0.0061
           8    0.0019   -0.0260    0.0087   -0.0388    0.0049    0.0011    0.0029    0.0516
           9    0.0260    0.0003    0.0002   -0.0001    0.0001   -0.0004    0.0001    0.0001
          10   -0.0001   -0.0331   -0.0080   -0.0035   -0.0035    0.0004   -0.0003    0.0133
          11   -0.0000    0.0192   -0.0138    0.0020   -0.0061   -0.0002   -0.0005   -0.0077
          12   -0.0541    0.0000   -0.0002    0.0000    0.0011   -0.0000   -0.0028   -0.0000
          13    0.0039    0.0273   -0.0001    0.0187    0.0077   -0.0014    0.0035   -0.0418
          14   -0.0029    0.0046    0.0177    0.0456   -0.0037    0.0002   -0.0002   -0.0309
          15    0.0260   -0.0003    0.0003    0.0002    0.0001    0.0004    0.0001    0.0000
          16    0.0014    0.0117   -0.0376   -0.0219    0.0068    0.0011    0.0007    0.0090
          17    0.0009   -0.0283    0.0127   -0.0215   -0.0043    0.0003   -0.0007    0.0307
          18   -0.0137   -0.0001    0.0001   -0.0001   -0.0000   -0.0001   -0.0001    0.0001
          19    0.0010    0.0135   -0.0253    0.4041   -0.0006    0.0219   -0.0018    0.1045
          20    0.0020   -0.0078   -0.0437   -0.2344   -0.0011   -0.0127   -0.0030   -0.0606
          21   -0.0261    0.0000    0.0002   -0.0007   -0.0002    0.0000    0.0004   -0.0002
          22    0.0052   -0.1284    0.1731   -0.0291   -0.1449   -0.0234   -0.0630   -0.2285
          23    0.0049   -0.0851    0.0592    0.0022   -0.0750   -0.0146   -0.0350   -0.1412
          24    0.0377   -0.0005    0.0002   -0.0005    0.0001    0.0001   -0.0001    0.0004
          25   -0.0037    0.0094    0.0175   -0.0273   -0.0063   -0.0015   -0.0016    0.0032
          26    0.0006    0.1626    0.1724   -0.1311    0.1825    0.0095    0.0943   -0.0213
          27   -0.0956   -0.0021   -0.0019    0.0006   -0.0016    0.0032   -0.0001    0.0003
          28    0.0022   -0.1364    0.1409    0.1003    0.1615   -0.0089    0.0827    0.0201
          29   -0.0026   -0.0889    0.1008    0.0888    0.0851   -0.0033    0.0455    0.0078
          30   -0.0956    0.0023   -0.0022   -0.0007   -0.0019   -0.0032   -0.0003   -0.0004
          31    0.0017    0.0101   -0.0345   -0.0163    0.0069    0.0010    0.0009    0.0091
          32    0.0071    0.1537    0.1797    0.0242   -0.1631    0.0274   -0.0720    0.2684
          33    0.0377    0.0008    0.0005    0.0006   -0.0002    0.0000   -0.0003   -0.0000
          34   -0.0029    0.0126    0.0048   -0.0022    0.0020   -0.0314   -0.0033    0.0030
          35   -0.0052   -0.0073    0.0083    0.0013    0.0034    0.0182   -0.0058   -0.0018
          36    0.0504   -0.0000    0.0019    0.0000    0.0102   -0.0000   -0.0238    0.0000
          37    0.1161   -0.0296    0.0021   -0.0145   -0.0245    0.3275    0.0686   -0.0190
          38    0.2002    0.0172    0.0036    0.0084   -0.0422   -0.1898    0.1187    0.0110
          39   -0.0640    0.0000    0.0007    0.0000    0.0242   -0.0007   -0.0658    0.0000
          40   -0.0626    0.0055   -0.0029   -0.0074   -0.0399    0.0952    0.0976   -0.0048
          41   -0.0920    0.0536    0.0146   -0.0012    0.0490    0.0934   -0.0994   -0.0139
          42   -0.0773   -0.0065   -0.0103   -0.0067   -0.0785    0.1988    0.1901   -0.0152
          43   -0.0488   -0.0438    0.0140   -0.0026    0.0620   -0.0344   -0.1341    0.0097
          44   -0.0999   -0.0314    0.0047    0.0070   -0.0101   -0.1287    0.0351    0.0110
          45   -0.0774    0.0065   -0.0104    0.0068   -0.0787   -0.1989    0.1906    0.0152


   Root No.      25        26        27        28        29        30        31        32

                14 A'     12 A"     15 A'     13 A"     16 A'     14 A"     17 A'     18 A'  

                1355.2    1371.9    1389.6    1540.5    1578.8    1705.8    1709.2    2673.2
  
           1   -0.0214   -0.0005    0.0051    0.0626    0.0226   -0.1387    0.0325   -0.0000
           2   -0.0370    0.0003    0.0088   -0.0363    0.0390    0.0804    0.0560    0.0000
           3   -0.0001   -0.0000    0.0000   -0.0001    0.0001    0.0002    0.0002    0.0001
           4    0.0319   -0.0345   -0.0082    0.0065   -0.0587    0.0972   -0.1060   -0.0000
           5   -0.0422   -0.0179    0.0081    0.0570   -0.0151   -0.0077   -0.0976   -0.0001
           6    0.0000   -0.0001    0.0001    0.0000   -0.0000   -0.0000   -0.0000   -0.0000
           7    0.0291    0.0010   -0.0039   -0.0441    0.0271   -0.0548    0.0332   -0.0001
           8    0.0312   -0.0021   -0.0108   -0.0293   -0.0457    0.0801    0.1417    0.0003
           9   -0.0000    0.0001    0.0001   -0.0000    0.0000   -0.0001   -0.0001   -0.0002
          10    0.0538    0.0347   -0.0068    0.0583    0.0403    0.1423   -0.0414   -0.0007
          11    0.0928   -0.0201   -0.0117   -0.0338    0.0696   -0.0826   -0.0713   -0.0013
          12    0.0001   -0.0001    0.0012   -0.0001   -0.0003   -0.0002    0.0002   -0.0030
          13    0.0126    0.0023   -0.0075    0.0036   -0.0531   -0.0968    0.1065    0.0003
          14    0.0407    0.0002   -0.0088    0.0528    0.0008    0.0078    0.0992    0.0001
          15   -0.0001   -0.0001   -0.0001    0.0001    0.0002    0.0004   -0.0002   -0.0001
          16   -0.0525   -0.0016    0.0111   -0.0462    0.0161    0.0550   -0.0321   -0.0001
          17    0.0067    0.0388   -0.0031   -0.0339   -0.0585   -0.0805   -0.1405    0.0000
          18    0.0001    0.0002   -0.0001    0.0000   -0.0001   -0.0003   -0.0002    0.0000
          19   -0.0211    0.1509    0.0050   -0.1472    0.0164    0.0336    0.0132    0.0002
          20   -0.0364   -0.0875    0.0087    0.0854    0.0282   -0.0195    0.0228    0.0005
          21    0.0000   -0.0003   -0.0002    0.0002    0.0001   -0.0001   -0.0000    0.0002
          22   -0.0936    0.0721    0.0264   -0.0955    0.0897   -0.0057    0.0354   -0.0007
          23   -0.1102    0.0433    0.0270   -0.0140    0.0648   -0.0308    0.0055    0.0012
          24   -0.0001    0.0003    0.0002    0.0000    0.0001   -0.0001    0.0002    0.0000
          25    0.0299    0.0022   -0.0048   -0.0326    0.0220   -0.0226    0.0144    0.0006
          26   -0.0724    0.2210    0.0135    0.0870    0.1226   -0.0149   -0.0399   -0.0001
          27    0.0008   -0.0011    0.0012   -0.0005   -0.0004   -0.0001    0.0003    0.0001
          28   -0.0777   -0.1907    0.0141   -0.0917    0.0955    0.0017   -0.0418   -0.0003
          29   -0.0100   -0.1117    0.0026   -0.0149    0.0800    0.0270   -0.0073    0.0006
          30    0.0009    0.0014    0.0008    0.0007   -0.0005    0.0001    0.0003    0.0002
          31   -0.0491   -0.0017    0.0103   -0.0352    0.0117    0.0239   -0.0128    0.0014
          32   -0.1360   -0.0841    0.0363    0.0899    0.1101    0.0202    0.0335    0.0001
          33   -0.0002   -0.0004   -0.0002    0.0002    0.0003   -0.0000    0.0002    0.0002
          34   -0.0378   -0.0067   -0.0233   -0.0093   -0.0093   -0.0109    0.0039   -0.0007
          35   -0.0651    0.0039   -0.0401    0.0054   -0.0160    0.0063    0.0067   -0.0012
          36    0.0025    0.0000    0.0003    0.0000    0.0004    0.0000   -0.0005   -0.0500
          37    0.0042    0.0050    0.1041    0.0062   -0.0174    0.0063    0.0109    0.1044
          38    0.0074   -0.0029    0.1800   -0.0036   -0.0300   -0.0037    0.0188    0.1784
          39   -0.0132    0.0000   -0.0925    0.0000    0.0180    0.0000   -0.0199    0.4841
          40   -0.0192   -0.0060    0.0225   -0.0064   -0.0061   -0.0028   -0.0000   -0.1931
          41    0.0338   -0.0388    0.2675   -0.0357   -0.0414   -0.0544    0.0232    0.0080
          42   -0.0094   -0.0037    0.0367   -0.0024   -0.0106   -0.0098    0.0131    0.0746
          43    0.0388    0.0307    0.2212    0.0278   -0.0330    0.0458    0.0202    0.1031
          44    0.0001    0.0244    0.1523    0.0233   -0.0258    0.0294    0.0115   -0.1638
          45   -0.0096    0.0037    0.0362    0.0024   -0.0106    0.0098    0.0131    0.0742


   Root No.      33        34        35        36        37        38        39

                15 A"     19 A'     16 A"     20 A'     17 A"     21 A'     22 A'  

                2694.0    2752.4    2758.1    2763.3    2765.4    2774.3    2792.9
  
           1    0.0001    0.0070   -0.0037   -0.0128   -0.0012   -0.0086    0.0009
           2   -0.0001    0.0120    0.0022   -0.0220    0.0007   -0.0148    0.0016
           3    0.0001    0.0000    0.0000   -0.0001    0.0000   -0.0001   -0.0001
           4   -0.0001    0.0089   -0.0082   -0.0039   -0.0084    0.0069   -0.0011
           5    0.0000   -0.0139    0.0179   -0.0014    0.0113   -0.0125    0.0015
           6    0.0001   -0.0000    0.0000    0.0000    0.0000   -0.0000   -0.0003
           7    0.0015   -0.0105    0.0132   -0.0190   -0.0200    0.0111   -0.0030
           8   -0.0007   -0.0016    0.0020    0.0011    0.0009   -0.0009    0.0009
           9    0.0001   -0.0000    0.0000   -0.0000   -0.0000   -0.0000   -0.0001
          10   -0.0032    0.0001    0.0030   -0.0002   -0.0027    0.0001   -0.0032
          11    0.0019    0.0003   -0.0017   -0.0004    0.0015    0.0002   -0.0056
          12   -0.0000    0.0000   -0.0000   -0.0000    0.0000    0.0000    0.0003
          13    0.0013    0.0038    0.0048    0.0104   -0.0107   -0.0063    0.0023
          14   -0.0010   -0.0099   -0.0125   -0.0160    0.0169    0.0092   -0.0021
          15   -0.0001   -0.0000   -0.0000   -0.0001    0.0001    0.0001    0.0003
          16   -0.0001   -0.0165   -0.0196    0.0007   -0.0140   -0.0142    0.0019
          17    0.0000    0.0008   -0.0017   -0.0041    0.0017   -0.0002   -0.0002
          18   -0.0000    0.0000    0.0000   -0.0000    0.0000    0.0000    0.0002
          19   -0.0000   -0.0955   -0.0009    0.1755   -0.0000    0.1078   -0.0109
          20    0.0000   -0.1647    0.0005    0.3025    0.0000    0.1858   -0.0189
          21    0.0001   -0.0005   -0.0000    0.0009    0.0000    0.0006   -0.0002
          22    0.0002   -0.1113    0.1350    0.0049    0.0916   -0.0886    0.0114
          23    0.0001    0.1938   -0.2335   -0.0100   -0.1595    0.1539   -0.0199
          24    0.0002    0.0002   -0.0002    0.0000   -0.0001    0.0001   -0.0005
          25   -0.0181    0.1393   -0.1849    0.2555    0.2682   -0.1366    0.0361
          26   -0.0007   -0.0012    0.0017   -0.0010   -0.0016    0.0005   -0.0009
          27    0.0000    0.0002   -0.0002    0.0003    0.0003   -0.0002   -0.0003
          28   -0.0084   -0.0702   -0.0933   -0.1277    0.1346    0.0683   -0.0187
          29    0.0160    0.1203    0.1597    0.2213   -0.2320   -0.1183    0.0309
          30   -0.0000    0.0005    0.0007    0.0009   -0.0010   -0.0004    0.0007
          31    0.0000    0.2235    0.2697   -0.0111    0.1839    0.1776   -0.0229
          32   -0.0003   -0.0004   -0.0012   -0.0007   -0.0003   -0.0005    0.0000
          33   -0.0001   -0.0004   -0.0005   -0.0000   -0.0003   -0.0003    0.0004
          34   -0.0443    0.0002    0.0008    0.0006   -0.0012   -0.0011   -0.0102
          35    0.0257    0.0004   -0.0005    0.0010    0.0007   -0.0018   -0.0177
          36   -0.0000   -0.0000    0.0000   -0.0002   -0.0000    0.0005    0.0039
          37   -0.0233   -0.0009    0.0002   -0.0022   -0.0002    0.0040    0.0406
          38    0.0136   -0.0016   -0.0001   -0.0037    0.0001    0.0068    0.0690
          39   -0.0001   -0.0049    0.0000   -0.0123   -0.0000    0.0228    0.2195
          40    0.3844   -0.0042   -0.0065   -0.0133    0.0096    0.0275    0.2599
          41   -0.0061    0.0005   -0.0003    0.0013    0.0003   -0.0025   -0.0189
          42   -0.2113    0.0025    0.0034    0.0072   -0.0049   -0.0146   -0.1356
          43    0.1967    0.0025   -0.0030    0.0078    0.0046   -0.0159   -0.1459
          44   -0.3311   -0.0035    0.0058   -0.0109   -0.0085    0.0227    0.2165
          45    0.2101    0.0024   -0.0034    0.0071    0.0049   -0.0144   -0.1345


           MASS-WEIGHTED COORDINATE ANALYSIS (NORMAL COORDINATES)


   Root No.       1         2         3         4         5         6         7         8

                 1 A"      1 A'      2 A"      3 A"      2 A'      3 A'      4 A"      4 A'  

                 -51.4     191.3     340.4     349.3     443.9     524.7     608.5     619.6
  
           1   -0.0057   -0.0003    0.1104   -0.0276   -0.0054   -0.2415   -0.1669    0.0082
           2    0.0033   -0.0020   -0.0640    0.0160   -0.0101   -0.4163    0.0968    0.0151
           3    0.0001    0.4146   -0.0004    0.0001    0.3851   -0.0184    0.0003   -0.2215
           4   -0.0027   -0.0005    0.1131   -0.0271   -0.0060   -0.2586   -0.1174    0.0085
           5   -0.0047    0.0001    0.1368   -0.0326   -0.0023   -0.0106    0.4712   -0.0038
           6    0.0828    0.0145   -0.0895   -0.3832   -0.3102    0.0141    0.0006    0.2302
           7    0.0071   -0.0008   -0.1610    0.0396   -0.0063   -0.2622    0.4223    0.0076
           8   -0.0106    0.0008    0.2496   -0.0613   -0.0009    0.0588    0.1357   -0.0054
           9    0.0818   -0.3816    0.0949    0.3820   -0.0015   -0.0063   -0.0001   -0.2533
          10    0.0086    0.0010   -0.3085    0.0747    0.0050    0.1895    0.1407   -0.0049
          11   -0.0050    0.0026    0.1789   -0.0433    0.0069    0.3267   -0.0816   -0.0100
          12   -0.0001   -0.2547    0.0007   -0.0002    0.5357   -0.0037   -0.0002    0.4962
          13    0.0125    0.0000   -0.2969    0.0719    0.0025    0.1812    0.0920   -0.0090
          14   -0.0008    0.0001    0.0159   -0.0034   -0.0057   -0.1984   -0.4339    0.0044
          15   -0.0819   -0.3813   -0.0941   -0.3822   -0.0016   -0.0071   -0.0008   -0.2533
          16    0.0025    0.0004   -0.0624    0.0158    0.0001    0.1193   -0.4673   -0.0070
          17    0.0048   -0.0006   -0.1662    0.0391   -0.0056   -0.2297   -0.1321    0.0053
          18   -0.0827    0.0147    0.0891    0.3833   -0.3103    0.0134    0.0004    0.2302
          19   -0.0029   -0.0001    0.0760   -0.0188   -0.0016   -0.0664    0.0656    0.0022
          20    0.0017   -0.0011   -0.0441    0.0109   -0.0035   -0.1144   -0.0381    0.0047
          21    0.0000    0.2787   -0.0002    0.0001    0.3071   -0.0141   -0.0001   -0.2721
          22   -0.0035    0.0001    0.0827   -0.0204   -0.0005   -0.0102   -0.0720   -0.0004
          23   -0.0030    0.0001    0.0692   -0.0167    0.0001    0.0303    0.1036   -0.0027
          24    0.0429    0.0221   -0.0707   -0.3008   -0.2965    0.0143   -0.0001    0.1541
          25    0.0018   -0.0002   -0.0438    0.0105   -0.0015   -0.0719    0.1136    0.0025
          26   -0.0023   -0.0004    0.1292   -0.0306   -0.0032   -0.0622   -0.0087   -0.0017
          27    0.0418   -0.1866    0.0752    0.2985   -0.1030   -0.0040   -0.0006   -0.3853
          28    0.0027   -0.0008   -0.1341    0.0310   -0.0022   -0.0183    0.0640   -0.0036
          29   -0.0004   -0.0001   -0.0261    0.0065   -0.0027   -0.0933   -0.0943    0.0020
          30   -0.0418   -0.1865   -0.0749   -0.2986   -0.1030   -0.0041    0.0003   -0.3853
          31    0.0007    0.0001   -0.0188    0.0051   -0.0004    0.0314   -0.1257   -0.0017
          32    0.0046   -0.0000   -0.1063    0.0255    0.0002    0.0062    0.0111   -0.0018
          33   -0.0429    0.0222    0.0705    0.3009   -0.2965    0.0142    0.0004    0.1540
          34   -0.0192    0.0006    0.4354   -0.1061    0.0084    0.2495    0.0668   -0.0038
          35    0.0112    0.0002   -0.2525    0.0615    0.0143    0.4301   -0.0388   -0.0071
          36    0.0000    0.4253   -0.0004    0.0001   -0.0706    0.0052   -0.0001    0.0363
          37    0.4882   -0.0795    0.2231   -0.0532    0.0928    0.0765    0.0205    0.0819
          38   -0.2832   -0.1374   -0.1294    0.0309    0.1601    0.1318   -0.0119    0.1412
          39   -0.0008    0.1847   -0.0003    0.0001   -0.0934   -0.0037   -0.0000   -0.0577
          40   -0.2522    0.0404    0.1094   -0.0273   -0.0418    0.0698    0.0224   -0.0403
          41    0.1401    0.0665   -0.2733    0.0642   -0.0687    0.1184   -0.0036   -0.0677
          42   -0.4897    0.1888   -0.0125    0.0019   -0.0984    0.0033    0.0017   -0.0609
          43   -0.2456    0.0381    0.2916   -0.0693   -0.0390    0.0681    0.0142   -0.0388
          44    0.1486    0.0678    0.0408   -0.0082   -0.0703    0.1194   -0.0177   -0.0686
          45    0.4906    0.1888    0.0120   -0.0018   -0.0984    0.0033   -0.0018   -0.0609


   Root No.       9        10        11        12        13        14        15        16

                 5 A'      6 A'      5 A"      7 A'      6 A"      7 A"      8 A'      9 A'  

                 799.0     847.0     898.3     948.1    1016.6    1030.6    1038.4    1049.2
  
           1    0.0094   -0.2033   -0.0024    0.0062    0.0014    0.0796   -0.0105   -0.1190
           2    0.0170   -0.3504    0.0014    0.0111   -0.0008   -0.0462   -0.0166   -0.2054
           3   -0.1897   -0.0143    0.0000   -0.2977    0.0000    0.0007   -0.4007    0.0349
           4    0.0105   -0.2307    0.0010    0.0067   -0.0002   -0.0562   -0.0089   -0.0778
           5   -0.0159    0.4164    0.0007   -0.0136    0.0013    0.0387    0.0065    0.0098
           6   -0.1481   -0.0074   -0.2216   -0.0455   -0.3144    0.0038    0.3211   -0.0332
           7   -0.0009    0.1143    0.0012   -0.0094   -0.0023   -0.1293    0.0433    0.5172
           8   -0.0094    0.1835   -0.0024   -0.0024    0.0017    0.1202   -0.0145   -0.1883
           9   -0.1376   -0.0025   -0.2368    0.2915    0.3022   -0.0005   -0.1111    0.0272
          10   -0.0017   -0.0288   -0.0006    0.0051    0.0004    0.0922   -0.0109   -0.0962
          11   -0.0036   -0.0498    0.0004    0.0092   -0.0002   -0.0535   -0.0187   -0.1657
          12    0.1855    0.0257    0.0000   -0.0537   -0.0000   -0.0005   -0.0860   -0.0278
          13   -0.0080    0.1025    0.0033    0.0032   -0.0034   -0.1685   -0.0343   -0.4202
          14   -0.0051    0.1903   -0.0002   -0.0100    0.0016    0.0526    0.0308    0.3554
          15   -0.1376   -0.0025    0.2368    0.2915   -0.3022    0.0009   -0.1109    0.0287
          16   -0.0195    0.4760    0.0005   -0.0151   -0.0004   -0.0615    0.0108    0.0471
          17    0.0016    0.0065   -0.0015   -0.0013   -0.0009    0.0296   -0.0047   -0.0627
          18   -0.1480   -0.0085    0.2216   -0.0454    0.3144   -0.0028    0.3210   -0.0335
          19    0.0023   -0.0512   -0.0004    0.0016    0.0010    0.0317   -0.0030   -0.0336
          20    0.0027   -0.0884    0.0002    0.0011   -0.0006   -0.0184   -0.0063   -0.0578
          21    0.4960    0.0300    0.0000    0.4920    0.0000    0.0002    0.4528   -0.0378
          22   -0.0012    0.0128   -0.0010    0.0006    0.0017    0.0815   -0.0132   -0.1631
          23   -0.0070    0.1538   -0.0010   -0.0043    0.0009    0.0670   -0.0048   -0.0887
          24    0.4596    0.0230    0.4336    0.0725    0.4049   -0.0040   -0.3700    0.0346
          25   -0.0003    0.0283   -0.0002   -0.0021   -0.0001   -0.0319    0.0113    0.1348
          26    0.0002    0.0187    0.0032   -0.0023   -0.0030    0.0303   -0.0089   -0.1091
          27    0.2513   -0.0038    0.4547   -0.4159   -0.3818    0.0058    0.1024   -0.0260
          28    0.0011    0.0022   -0.0041   -0.0021    0.0035   -0.0422   -0.0130   -0.1617
          29   -0.0005    0.0339   -0.0008   -0.0024    0.0010    0.0126    0.0053    0.0629
          30    0.2513   -0.0037   -0.4547   -0.4159    0.3818   -0.0059    0.1025   -0.0255
          31   -0.0043    0.1272   -0.0008   -0.0038   -0.0010   -0.0176    0.0014    0.0040
          32   -0.0051    0.0874    0.0021   -0.0019   -0.0013   -0.1040   -0.0132   -0.1857
          33    0.4596    0.0228   -0.4336    0.0726   -0.4049    0.0045   -0.3701    0.0343
          34    0.0074   -0.2125    0.0009    0.0064    0.0029    0.3784    0.0100    0.1717
          35    0.0123   -0.3663   -0.0005    0.0119   -0.0017   -0.2195    0.0162    0.2961
          36    0.0695   -0.0103   -0.0000   -0.1555   -0.0000   -0.0017    0.1463    0.0109
          37    0.0825   -0.0663   -0.0049   -0.1244    0.0030   -0.1497    0.1067    0.0539
          38    0.1422   -0.1144    0.0028   -0.2145   -0.0017    0.0869    0.1840    0.0931
          39   -0.0525    0.0089    0.0000    0.0730   -0.0000   -0.0001   -0.0577   -0.0138
          40   -0.0383   -0.0542   -0.0013    0.0658    0.0023    0.1029   -0.0504    0.0381
          41   -0.0592   -0.0991   -0.0002    0.1002    0.0066    0.5650   -0.0729    0.0782
          42   -0.0591   -0.0043   -0.0028    0.0864    0.0027   -0.0061   -0.0675    0.0048
          43   -0.0323   -0.0591   -0.0005    0.0543   -0.0046   -0.4393   -0.0384    0.0490
          44   -0.0626   -0.0962    0.0012    0.1067   -0.0053   -0.3699   -0.0800    0.0719
          45   -0.0591   -0.0043    0.0028    0.0864   -0.0027    0.0061   -0.0675    0.0047


   Root No.      17        18        19        20        21        22        23        24

                10 A'      8 A"     11 A'      9 A"     12 A'     10 A"     13 A'     11 A"  

                1080.8    1174.0    1183.1    1214.9    1268.2    1276.8    1281.9    1328.7
  
           1    0.0083   -0.2668   -0.2086   -0.0158   -0.0007    0.0014   -0.0146    0.2695
           2    0.0150    0.1547   -0.3598    0.0092   -0.0014   -0.0008   -0.0247   -0.1563
           3    0.0711    0.0006   -0.0017    0.0000   -0.0002    0.0003    0.0008   -0.0005
           4   -0.0002    0.2431    0.2199    0.0463   -0.0633    0.0018   -0.0086   -0.1449
           5    0.0129    0.0309   -0.1952    0.1766    0.0335   -0.0075    0.0020   -0.1506
           6   -0.1044    0.0008   -0.0004    0.0004   -0.0000    0.0008   -0.0005   -0.0008
           7   -0.0334    0.0767    0.1143   -0.1803   -0.0628   -0.0058   -0.0160    0.0398
           8    0.0141   -0.2079    0.0647   -0.2310    0.0438    0.0073    0.0244    0.3365
           9    0.1987    0.0022    0.0018   -0.0008    0.0011   -0.0029    0.0010    0.0003
          10   -0.0006   -0.2647   -0.0592   -0.0208   -0.0315    0.0024   -0.0026    0.0870
          11   -0.0003    0.1536   -0.1020    0.0121   -0.0543   -0.0014   -0.0046   -0.0505
          12   -0.4133    0.0004   -0.0016    0.0000    0.0096   -0.0002   -0.0233   -0.0001
          13    0.0297    0.2185   -0.0006    0.1109    0.0692   -0.0092    0.0293   -0.2723
          14   -0.0219    0.0366    0.1313    0.2712   -0.0329    0.0014   -0.0015   -0.2016
          15    0.1986   -0.0027    0.0019    0.0009    0.0009    0.0029    0.0008    0.0001
          16    0.0108    0.0939   -0.2786   -0.1303    0.0605    0.0074    0.0059    0.0588
          17    0.0071   -0.2263    0.0938   -0.1279   -0.0385    0.0022   -0.0061    0.2005
          18   -0.1044   -0.0012    0.0005   -0.0003   -0.0003   -0.0004   -0.0006    0.0009
          19    0.0023    0.0313   -0.0544    0.6961   -0.0016    0.0417   -0.0044    0.1975
          20    0.0045   -0.0182   -0.0938   -0.4037   -0.0029   -0.0242   -0.0073   -0.1146
          21   -0.0577    0.0000    0.0004   -0.0012   -0.0005    0.0001    0.0009   -0.0004
          22    0.0116   -0.2976    0.3718   -0.0501   -0.3761   -0.0445   -0.1527   -0.4317
          23    0.0108   -0.1972    0.1272    0.0038   -0.1946   -0.0277   -0.0849   -0.2668
          24    0.0834   -0.0012    0.0004   -0.0008    0.0002    0.0002   -0.0003    0.0008
          25   -0.0081    0.0218    0.0377   -0.0469   -0.0164   -0.0029   -0.0038    0.0060
          26    0.0014    0.3769    0.3701   -0.2259    0.4735    0.0180    0.2286   -0.0403
          27   -0.2116   -0.0048   -0.0042    0.0011   -0.0042    0.0061   -0.0002    0.0006
          28    0.0050   -0.3164    0.3025    0.1727    0.4191   -0.0169    0.2005    0.0379
          29   -0.0058   -0.2061    0.2165    0.1529    0.2209   -0.0063    0.1103    0.0148
          30   -0.2116    0.0052   -0.0046   -0.0013   -0.0050   -0.0061   -0.0006   -0.0007
          31    0.0038    0.0234   -0.0742   -0.0282    0.0178    0.0020    0.0021    0.0172
          32    0.0157    0.3563    0.3858    0.0417   -0.4232    0.0522   -0.1745    0.5071
          33    0.0834    0.0017    0.0011    0.0010   -0.0005    0.0000   -0.0007   -0.0001
          34   -0.0218    0.1007    0.0357   -0.0132    0.0179   -0.2062   -0.0280    0.0198
          35   -0.0400   -0.0584    0.0616    0.0076    0.0309    0.1196   -0.0485   -0.0115
          36    0.3849   -0.0004    0.0140    0.0000    0.0918   -0.0001   -0.1991    0.0000
          37    0.2570   -0.0687    0.0045   -0.0250   -0.0635    0.6233    0.1663   -0.0358
          38    0.4432    0.0399    0.0078    0.0145   -0.1094   -0.3613    0.2876    0.0208
          39   -0.1416    0.0000    0.0015    0.0000    0.0627   -0.0013   -0.1594    0.0001
          40   -0.1386    0.0127   -0.0063   -0.0128   -0.1034    0.1813    0.2365   -0.0090
          41   -0.2036    0.1243    0.0313   -0.0021    0.1270    0.1778   -0.2408   -0.0263
          42   -0.1712   -0.0150   -0.0222   -0.0116   -0.2037    0.3784    0.4607   -0.0287
          43   -0.1080   -0.1015    0.0301   -0.0045    0.1610   -0.0655   -0.3250    0.0184
          44   -0.2213   -0.0727    0.0101    0.0121   -0.0263   -0.2450    0.0851    0.0208
          45   -0.1713    0.0150   -0.0223    0.0117   -0.2041   -0.3785    0.4620    0.0287


   Root No.      25        26        27        28        29        30        31        32

                14 A'     12 A"     15 A'     13 A"     16 A'     14 A"     17 A'     18 A'  

                1355.2    1371.9    1389.6    1540.5    1578.8    1705.8    1709.2    2673.2
  
           1   -0.1177   -0.0039    0.0360    0.3759    0.1375   -0.4578    0.1050   -0.0002
           2   -0.2030    0.0023    0.0620   -0.2180    0.2371    0.2656    0.1811    0.0002
           3   -0.0005   -0.0001    0.0002   -0.0007    0.0006    0.0007    0.0005    0.0004
           4    0.1751   -0.2651   -0.0578    0.0391   -0.3572    0.3208   -0.3426   -0.0000
           5   -0.2315   -0.1378    0.0572    0.3419   -0.0918   -0.0255   -0.3154   -0.0005
           6    0.0002   -0.0009    0.0010    0.0000   -0.0003   -0.0001   -0.0000   -0.0002
           7    0.1596    0.0077   -0.0276   -0.2645    0.1647   -0.1811    0.1073   -0.0003
           8    0.1711   -0.0162   -0.0767   -0.1761   -0.2780    0.2646    0.4581    0.0016
           9   -0.0002    0.0008    0.0005   -0.0001    0.0002   -0.0003   -0.0002   -0.0011
          10    0.2953    0.2666   -0.0482    0.3502    0.2454    0.4700   -0.1337   -0.0040
          11    0.5093   -0.1546   -0.0832   -0.2031    0.4232   -0.2726   -0.2305   -0.0071
          12    0.0005   -0.0004    0.0086   -0.0006   -0.0016   -0.0008    0.0007   -0.0165
          13    0.0692    0.0179   -0.0528    0.0215   -0.3231   -0.3196    0.3443    0.0018
          14    0.2234    0.0014   -0.0621    0.3170    0.0049    0.0258    0.3207    0.0008
          15   -0.0003   -0.0008   -0.0010    0.0005    0.0012    0.0012   -0.0007   -0.0006
          16   -0.2879   -0.0120    0.0783   -0.2774    0.0977    0.1815   -0.1037   -0.0005
          17    0.0369    0.2986   -0.0218   -0.2037   -0.3557   -0.2658   -0.4540    0.0002
          18    0.0008    0.0013   -0.0008    0.0003   -0.0008   -0.0008   -0.0006    0.0003
          19   -0.0335    0.3362    0.0104   -0.2560    0.0288    0.0321    0.0124    0.0003
          20   -0.0578   -0.1950    0.0178    0.1485    0.0497   -0.0186    0.0213    0.0008
          21    0.0000   -0.0006   -0.0003    0.0004    0.0002   -0.0001   -0.0000    0.0003
          22   -0.1487    0.1607    0.0542   -0.1661    0.1581   -0.0055    0.0331   -0.0012
          23   -0.1750    0.0964    0.0554   -0.0244    0.1143   -0.0294    0.0052    0.0019
          24   -0.0001    0.0006    0.0003    0.0000    0.0001   -0.0001    0.0002    0.0000
          25    0.0475    0.0050   -0.0098   -0.0567    0.0388   -0.0216    0.0135    0.0010
          26   -0.1150    0.4926    0.0277    0.1513    0.2161   -0.0142   -0.0374   -0.0002
          27    0.0012   -0.0024    0.0024   -0.0008   -0.0008   -0.0001    0.0002    0.0001
          28   -0.1234   -0.4251    0.0289   -0.1594    0.1683    0.0016   -0.0392   -0.0006
          29   -0.0159   -0.2489    0.0053   -0.0259    0.1410    0.0258   -0.0069    0.0009
          30    0.0014    0.0031    0.0015    0.0012   -0.0009    0.0001    0.0003    0.0004
          31   -0.0781   -0.0039    0.0212   -0.0613    0.0207    0.0228   -0.0120    0.0022
          32   -0.2161   -0.1874    0.0745    0.1563    0.1939    0.0194    0.0313    0.0002
          33   -0.0003   -0.0009   -0.0004    0.0003    0.0005   -0.0000    0.0002    0.0003
          34   -0.2073   -0.0514   -0.1650   -0.0561   -0.0563   -0.0360    0.0126   -0.0040
          35   -0.3572    0.0298   -0.2844    0.0325   -0.0971    0.0209    0.0217   -0.0068
          36    0.0137    0.0002    0.0023    0.0002    0.0025    0.0001   -0.0017   -0.2751
          37    0.0067    0.0111    0.2137    0.0108   -0.0306    0.0060    0.0102    0.1666
          38    0.0117   -0.0065    0.3693   -0.0063   -0.0529   -0.0035    0.0176    0.2846
          39   -0.0210    0.0000   -0.1899    0.0000    0.0318    0.0000   -0.0186    0.7723
          40   -0.0305   -0.0133    0.0462   -0.0111   -0.0108   -0.0027   -0.0000   -0.3081
          41    0.0536   -0.0864    0.5491   -0.0621   -0.0730   -0.0520    0.0217    0.0127
          42   -0.0150   -0.0082    0.0754   -0.0042   -0.0187   -0.0094    0.0123    0.1190
          43    0.0616    0.0685    0.4540    0.0484   -0.0581    0.0438    0.0189    0.1645
          44    0.0002    0.0545    0.3125    0.0405   -0.0455    0.0282    0.0107   -0.2613
          45   -0.0152    0.0082    0.0744    0.0042   -0.0186    0.0094    0.0122    0.1183


   Root No.      33        34        35        36        37        38        39

                15 A"     19 A'     16 A"     20 A'     17 A"     21 A'     22 A'  

                2694.0    2752.4    2758.1    2763.3    2765.4    2774.3    2792.9
  
           1    0.0008    0.0557   -0.0268   -0.0848   -0.0089   -0.0742    0.0064
           2   -0.0004    0.0961    0.0156   -0.1463    0.0051   -0.1279    0.0110
           3    0.0004    0.0003    0.0000   -0.0004    0.0000   -0.0004   -0.0006
           4   -0.0003    0.0711   -0.0597   -0.0261   -0.0608    0.0593   -0.0081
           5    0.0002   -0.1112    0.1292   -0.0093    0.0820   -0.1075    0.0107
           6    0.0007   -0.0001    0.0001    0.0001    0.0001   -0.0004   -0.0020
           7    0.0083   -0.0838    0.0956   -0.1263   -0.1452    0.0955   -0.0211
           8   -0.0035   -0.0132    0.0145    0.0072    0.0065   -0.0078    0.0065
           9    0.0005   -0.0000    0.0001   -0.0001   -0.0001   -0.0001   -0.0010
          10   -0.0171    0.0012    0.0214   -0.0015   -0.0193    0.0011   -0.0230
          11    0.0099    0.0020   -0.0124   -0.0026    0.0112    0.0020   -0.0396
          12   -0.0002    0.0001   -0.0000   -0.0001    0.0000    0.0003    0.0022
          13    0.0071    0.0301    0.0349    0.0690   -0.0777   -0.0542    0.0161
          14   -0.0055   -0.0793   -0.0901   -0.1060    0.1228    0.0791   -0.0151
          15   -0.0007   -0.0003   -0.0003   -0.0006    0.0005    0.0007    0.0025
          16   -0.0003   -0.1318   -0.1418    0.0049   -0.1013   -0.1228    0.0133
          17    0.0002    0.0065   -0.0124   -0.0273    0.0121   -0.0019   -0.0017
          18   -0.0002    0.0002    0.0002   -0.0002    0.0002    0.0004    0.0015
          19   -0.0000   -0.2212   -0.0019    0.3373   -0.0000    0.2691   -0.0224
          20    0.0000   -0.3813    0.0011    0.5815    0.0000    0.4640   -0.0387
          21    0.0002   -0.0012   -0.0000    0.0018    0.0000    0.0014   -0.0005
          22    0.0004   -0.2577    0.2828    0.0094    0.1926   -0.2212    0.0234
          23    0.0002    0.4488   -0.4892   -0.0193   -0.3354    0.3843   -0.0408
          24    0.0003    0.0004   -0.0004    0.0000   -0.0003    0.0002   -0.0011
          25   -0.0280    0.3226   -0.3874    0.4912    0.5639   -0.3411    0.0740
          26   -0.0011   -0.0027    0.0035   -0.0019   -0.0034    0.0014   -0.0018
          27    0.0000    0.0004   -0.0004    0.0005    0.0006   -0.0005   -0.0005
          28   -0.0130   -0.1625   -0.1954   -0.2455    0.2830    0.1705   -0.0383
          29    0.0248    0.2786    0.3345    0.4255   -0.4878   -0.2954    0.0633
          30   -0.0000    0.0012    0.0014    0.0017   -0.0021   -0.0011    0.0015
          31    0.0000    0.5175    0.5650   -0.0214    0.3867    0.4434   -0.0470
          32   -0.0004   -0.0009   -0.0026   -0.0014   -0.0007   -0.0012    0.0001
          33   -0.0001   -0.0010   -0.0010   -0.0000   -0.0007   -0.0007    0.0009
          34   -0.2367    0.0017    0.0059    0.0038   -0.0085   -0.0091   -0.0726
          35    0.1373    0.0029   -0.0034    0.0066    0.0049   -0.0157   -0.1251
          36   -0.0001   -0.0001    0.0000   -0.0011   -0.0000    0.0042    0.0274
          37   -0.0361   -0.0022    0.0004   -0.0042   -0.0004    0.0100    0.0834
          38    0.0210   -0.0037   -0.0002   -0.0071    0.0002    0.0170    0.1416
          39   -0.0002   -0.0113    0.0000   -0.0236   -0.0000    0.0569    0.4507
          40    0.5947   -0.0098   -0.0137   -0.0256    0.0202    0.0687    0.5335
          41   -0.0094    0.0010   -0.0006    0.0025    0.0005   -0.0062   -0.0387
          42   -0.3269    0.0057    0.0071    0.0138   -0.0104   -0.0364   -0.2784
          43    0.3043    0.0058   -0.0063    0.0149    0.0096   -0.0396   -0.2996
          44   -0.5122   -0.0080    0.0122   -0.0209   -0.0178    0.0566    0.4444
          45    0.3250    0.0056   -0.0070    0.0137    0.0103   -0.0361   -0.2762


          DESCRIPTION OF VIBRATIONS


 VIBRATION    1    1A"      ATOM PAIR        ENERGY CONTRIBUTION    RADIAL
 FREQ.       -51.38        C 12 --  H 13          +33.0% (-99.9%)     0.1%
 T-DIPOLE    0.0252        C 12 --  H 15          +32.3% (-99.9%)     0.0%
 TRAVEL      0.3383        C 12 --  H 14          +32.3% (-99.9%)     0.1%
 RED. MASS   0.3149        C  5 --  C  6           +0.3% (-99.9%)     0.0%
 EFF. MASS  11.4692

 VIBRATION    2    1A'      ATOM PAIR        ENERGY CONTRIBUTION    RADIAL
 FREQ.       191.33        C  4 --  C 12          +21.4% (240.5%)     0.0%
 T-DIPOLE    0.1670        C 12 --  H 15          +14.0% (194.1%)    29.0%
 TRAVEL      0.0820        C 12 --  H 14          +14.0% (194.1%)    33.2%
 RED. MASS   1.3226        C 12 --  H 13          +12.7% (184.9%)    94.9%
 EFF. MASS  52.4032

 VIBRATION    3    2A"      ATOM PAIR        ENERGY CONTRIBUTION    RADIAL
 FREQ.       340.37        C  4 --  C 12          +19.9% (204.9%)     0.0%
 T-DIPOLE    0.1703        C 12 --  H 13           +9.0% (137.9%)     0.1%
 TRAVEL      0.0819        C  4 --  C  5           +8.7% (135.8%)     0.4%
 RED. MASS   1.2546        C  3 --  C  4           +8.7% (135.8%)     0.4%
 EFF. MASS  29.5629

 VIBRATION    4    3A"      ATOM PAIR        ENERGY CONTRIBUTION    RADIAL
 FREQ.       349.27        C  5 --  C  6          +20.8% (113.0%)     0.0%
 T-DIPOLE    0.0364        C  2 --  C  3          +20.8% (113.0%)     0.0%
 TRAVEL      0.1006        C  3 --  C  4           +8.2% ( 71.1%)     0.0%
 RED. MASS   1.1169        C  4 --  C  5           +8.2% ( 71.1%)     0.0%
 EFF. MASS  19.0888

 VIBRATION    5    2A'      ATOM PAIR        ENERGY CONTRIBUTION    RADIAL
 FREQ.       443.93        C  4 --  C 12          +15.1% ( 80.4%)     0.0%
 T-DIPOLE    0.3627        C  1 --  C  6          +14.4% ( 78.6%)     0.0%
 TRAVEL      0.1055        C  1 --  C  2          +14.4% ( 78.6%)     0.0%
 RED. MASS   1.5041        C  4 --  C  5          +13.3% ( 75.4%)     0.0%
 EFF. MASS  13.6432        C  3 --  C  4          +13.3% ( 75.4%)     0.0%

 VIBRATION    6    3A'      ATOM PAIR        ENERGY CONTRIBUTION    RADIAL
 FREQ.       524.66        C  1 --  C  6           +9.6% (104.1%)     0.2%
 T-DIPOLE    0.0909        C  1 --  C  2           +9.6% (104.1%)     0.2%
 TRAVEL      0.0831        C  4 --  C 12           +9.6% (104.1%)    99.5%
 RED. MASS   1.8604        C  3 --  C  4           +8.9% (100.0%)     0.0%
 EFF. MASS  18.5909

 VIBRATION    7    4A"      ATOM PAIR        ENERGY CONTRIBUTION    RADIAL
 FREQ.       608.50        C  5 --  C  6          +13.3% (105.5%)     0.1%
 T-DIPOLE    0.0372        C  2 --  C  3          +13.3% (105.5%)     0.1%
 TRAVEL      0.0787        C  1 --  C  2          +10.4% ( 93.3%)     1.7%
 RED. MASS   2.2922        C  1 --  C  6          +10.4% ( 93.3%)     1.7%
 EFF. MASS  17.8907

 VIBRATION    8    4A'      ATOM PAIR        ENERGY CONTRIBUTION    RADIAL
 FREQ.       619.60        C  4 --  C  5          +18.9% ( 64.2%)     0.0%
 T-DIPOLE    0.3885        C  3 --  C  4          +18.9% ( 64.2%)     0.0%
 TRAVEL      0.1079        C  4 --  C 12          +10.9% ( 48.9%)     0.0%
 RED. MASS   0.9773        C  5 --  C  6           +7.0% ( 39.1%)     0.0%
 EFF. MASS   9.3451

 VIBRATION    9    5A'      ATOM PAIR        ENERGY CONTRIBUTION    RADIAL
 FREQ.       799.02        C  1 --  H  7          +25.0% ( 61.0%)     0.0%
 T-DIPOLE    0.7855        C  6 --  H 11          +20.4% ( 55.1%)     0.1%
 TRAVEL      0.1967        C  2 --  H  8          +20.4% ( 55.1%)     0.1%
 RED. MASS   0.2111        C  3 --  H  9           +7.5% ( 33.4%)     0.0%
 EFF. MASS   2.1823

 VIBRATION   10    6A'      ATOM PAIR        ENERGY CONTRIBUTION    RADIAL
 FREQ.       846.95        C  1 --  C  6          +15.2% ( 82.4%)     0.1%
 T-DIPOLE    0.1350        C  1 --  C  2          +15.2% ( 82.4%)     0.1%
 TRAVEL      0.0756        C  2 --  C  3           +8.8% ( 62.5%)     0.5%
 RED. MASS   2.0000        C  5 --  C  6           +8.8% ( 62.5%)     0.4%
 EFF. MASS  13.9446

 VIBRATION   11    5A"      ATOM PAIR        ENERGY CONTRIBUTION    RADIAL
 FREQ.       898.25        C  5 --  H 10          +23.3% ( 53.1%)     0.0%
 T-DIPOLE    0.0045        C  3 --  H  9          +23.3% ( 53.1%)     0.0%
 TRAVEL      0.1800        C  6 --  H 11          +21.2% ( 50.7%)     0.0%
 RED. MASS   0.2909        C  2 --  H  8          +21.2% ( 50.7%)     0.0%
 EFF. MASS   2.3166

 VIBRATION   12    7A'      ATOM PAIR        ENERGY CONTRIBUTION    RADIAL
 FREQ.       948.09        C  1 --  H  7          +24.6% ( 56.6%)     0.0%
 T-DIPOLE    0.0634        C  5 --  H 10          +19.1% ( 50.0%)     0.0%
 TRAVEL      0.1489        C  3 --  H  9          +19.1% ( 50.0%)     0.0%
 RED. MASS   0.4008        C 12 --  H 13           +9.1% ( 34.5%)    12.4%
 EFF. MASS   3.2088

 VIBRATION   13    6A"      ATOM PAIR        ENERGY CONTRIBUTION    RADIAL
 FREQ.      1016.65        C  6 --  H 11          +19.3% ( 47.2%)     0.0%
 T-DIPOLE    0.0004        C  2 --  H  8          +19.3% ( 47.2%)     0.0%
 TRAVEL      0.1298        C  5 --  H 10          +17.2% ( 44.5%)     0.0%
 RED. MASS   0.5323        C  3 --  H  9          +17.2% ( 44.5%)     0.0%
 EFF. MASS   3.9339

 VIBRATION   14    7A"      ATOM PAIR        ENERGY CONTRIBUTION    RADIAL
 FREQ.      1030.62        C 12 --  H 15          +29.5% ( 77.7%)    13.4%
 T-DIPOLE    0.3957        C 12 --  H 14          +29.5% ( 77.7%)    12.4%
 TRAVEL      0.1242        C 12 --  H 13          +11.3% ( 48.0%)     0.0%
 RED. MASS   0.6864        C  4 --  C 12           +8.3% ( 41.3%)     0.0%
 EFF. MASS   4.2447

 VIBRATION   15    8A'      ATOM PAIR        ENERGY CONTRIBUTION    RADIAL
 FREQ.      1038.44        C  1 --  H  7          +23.4% ( 53.9%)     0.0%
 T-DIPOLE    0.1849        C  2 --  H  8          +15.6% ( 43.9%)     0.0%
 TRAVEL      0.1182        C  6 --  H 11          +15.6% ( 43.9%)     0.0%
 RED. MASS   0.6617        C  1 --  C  6           +9.8% ( 34.9%)     0.0%
 EFF. MASS   4.6501

 VIBRATION   16    9A'      ATOM PAIR        ENERGY CONTRIBUTION    RADIAL
 FREQ.      1049.16        C  5 --  C  6          +13.7% ( 64.5%)     4.1%
 T-DIPOLE    0.3334        C  2 --  C  3          +13.7% ( 64.5%)     4.1%
 TRAVEL      0.0733        C  3 --  C  4          +12.5% ( 61.6%)    27.6%
 RED. MASS   2.4440        C  4 --  C  5          +12.5% ( 61.6%)    27.6%
 EFF. MASS  11.9481        C  5 --  H 10          +10.0% ( 55.1%)    94.4%
                           C  3 --  H  9          +10.0% ( 55.1%)    94.4%

 VIBRATION   17   10A'      ATOM PAIR        ENERGY CONTRIBUTION    RADIAL
 FREQ.      1080.84        C 12 --  H 13          +28.7% ( 65.0%)    15.1%
 T-DIPOLE    0.8044        C 12 --  H 14          +15.1% ( 47.2%)     8.7%
 TRAVEL      0.1113        C 12 --  H 15          +15.1% ( 47.2%)     6.7%
 RED. MASS   0.7659        C  4 --  C 12          +14.1% ( 45.6%)     0.3%
 EFF. MASS   5.0336

 VIBRATION   18    8A"      ATOM PAIR        ENERGY CONTRIBUTION    RADIAL
 FREQ.      1173.97        C  3 --  H  9          +10.1% ( 49.9%)     1.0%
 T-DIPOLE    0.2008        C  5 --  H 10          +10.1% ( 49.9%)     1.0%
 TRAVEL      0.0971        C  1 --  C  2           +9.8% ( 49.3%)    94.4%
 RED. MASS   0.4350        C  1 --  C  6           +9.8% ( 49.2%)    94.5%
 EFF. MASS   6.0896

 VIBRATION   19   11A'      ATOM PAIR        ENERGY CONTRIBUTION    RADIAL
 FREQ.      1183.06        C  1 --  C  2          +16.9% ( 56.0%)    87.1%
 T-DIPOLE    0.2242        C  1 --  C  6          +16.9% ( 56.0%)    87.1%
 TRAVEL      0.0941        C  2 --  H  8          +11.8% ( 46.7%)    32.6%
 RED. MASS   0.6357        C  6 --  H 11          +11.8% ( 46.7%)    32.7%
 EFF. MASS   6.4325

 VIBRATION   20    9A"      ATOM PAIR        ENERGY CONTRIBUTION    RADIAL
 FREQ.      1214.91        C  1 --  H  7          +42.9% ( 82.9%)     0.0%
 T-DIPOLE    0.2575        C  2 --  C  3          +11.4% ( 42.7%)   100.0%
 TRAVEL      0.1167        C  5 --  C  6          +11.4% ( 42.7%)   100.0%
 RED. MASS   0.6321        C  3 --  H  9           +7.3% ( 34.2%)    99.8%
 EFF. MASS   4.0721

 VIBRATION   21   12A'      ATOM PAIR        ENERGY CONTRIBUTION    RADIAL
 FREQ.      1268.22        C  3 --  H  9          +22.8% ( 46.8%)     1.1%
 T-DIPOLE    0.2330        C  5 --  H 10          +22.8% ( 46.8%)     1.0%
 TRAVEL      0.1947        C  6 --  H 11          +17.9% ( 41.4%)     1.2%
 RED. MASS   0.1790        C  2 --  H  8          +17.9% ( 41.4%)     1.2%
 EFF. MASS   1.4029

 VIBRATION   22   10A"      ATOM PAIR        ENERGY CONTRIBUTION    RADIAL
 FREQ.      1276.80        C 12 --  H 13          +51.3% ( 61.7%)     0.1%
 T-DIPOLE    0.4924        C 12 --  H 14          +21.6% ( 40.1%)     8.0%
 TRAVEL      0.1884        C 12 --  H 15          +21.6% ( 40.1%)    10.5%
 RED. MASS   0.3973        C  4 --  C 12           +4.3% ( 17.9%)     0.0%
 EFF. MASS   1.4872

 VIBRATION   23   13A'      ATOM PAIR        ENERGY CONTRIBUTION    RADIAL
 FREQ.      1281.95        C 12 --  H 15          +31.0% ( 48.6%)     0.3%
 T-DIPOLE    0.5202        C 12 --  H 14          +31.0% ( 48.6%)     0.9%
 TRAVEL      0.1951        C 12 --  H 13          +14.1% ( 32.7%)    19.7%
 RED. MASS   0.2625        C  5 --  H 10           +6.5% ( 22.2%)     0.3%
 EFF. MASS   1.3819

 VIBRATION   24   11A"      ATOM PAIR        ENERGY CONTRIBUTION    RADIAL
 FREQ.      1328.66        C  6 --  H 11          +13.4% ( 48.4%)     1.9%
 T-DIPOLE    0.2073        C  2 --  H  8          +13.4% ( 48.4%)     1.9%
 TRAVEL      0.0978        C  5 --  C  6          +11.0% ( 43.8%)    97.3%
 RED. MASS   0.6132        C  2 --  C  3          +11.0% ( 43.8%)    97.3%
 EFF. MASS   5.3027

 VIBRATION   25   14A'      ATOM PAIR        ENERGY CONTRIBUTION    RADIAL
 FREQ.      1355.24        C  4 --  C 12          +23.2% ( 73.0%)   100.0%
 T-DIPOLE    0.5322        C  3 --  C  4          +13.4% ( 55.4%)    38.6%
 TRAVEL      0.0683        C  4 --  C  5          +13.4% ( 55.4%)    38.6%
 RED. MASS   2.0778        C  2 --  C  3           +6.0% ( 37.2%)    71.3%
 EFF. MASS  10.6529

 VIBRATION   26   12A"      ATOM PAIR        ENERGY CONTRIBUTION    RADIAL
 FREQ.      1371.91        C  5 --  H 10          +15.4% ( 45.5%)     0.0%
 T-DIPOLE    0.0160        C  3 --  H  9          +15.4% ( 45.5%)     0.0%
 TRAVEL      0.1231        C  1 --  H  7           +9.3% ( 35.4%)     0.0%
 RED. MASS   0.4444        C  6 --  H 11           +9.0% ( 34.9%)     0.0%
 EFF. MASS   3.2459

 VIBRATION   27   15A'      ATOM PAIR        ENERGY CONTRIBUTION    RADIAL
 FREQ.      1389.55        C 12 --  H 15          +30.9% ( 55.4%)     1.1%
 T-DIPOLE    0.9344        C 12 --  H 14          +30.9% ( 55.4%)     1.2%
 TRAVEL      0.1481        C 12 --  H 13          +23.2% ( 48.1%)     1.2%
 RED. MASS   0.3847        C  4 --  C 12           +5.1% ( 22.5%)    99.9%
 EFF. MASS   2.2112

 VIBRATION   28   13A"      ATOM PAIR        ENERGY CONTRIBUTION    RADIAL
 FREQ.      1540.49        C  1 --  C  6          +11.6% ( 47.0%)    26.6%
 T-DIPOLE    0.3304        C  1 --  C  2          +11.6% ( 47.0%)    26.6%
 TRAVEL      0.0678        C  1 --  H  7          +11.3% ( 46.3%)     0.0%
 RED. MASS   1.3438        C  5 --  C  6          +10.7% ( 45.0%)   100.0%
 EFF. MASS   9.5350        C  2 --  C  3          +10.7% ( 45.0%)   100.0%
                           C  4 --  C  5          +10.3% ( 44.2%)    28.4%
                           C  3 --  C  4          +10.3% ( 44.2%)    28.5%

 VIBRATION   29   16A'      ATOM PAIR        ENERGY CONTRIBUTION    RADIAL
 FREQ.      1578.82        C  4 --  C  5          +14.7% ( 52.7%)    65.0%
 T-DIPOLE    0.8642        C  3 --  C  4          +14.7% ( 52.7%)    64.9%
 TRAVEL      0.0668        C  4 --  C 12           +9.5% ( 42.4%)   100.0%
 RED. MASS   1.4717        C  1 --  C  6           +9.1% ( 41.5%)    69.3%
 EFF. MASS   9.5681

 VIBRATION   30   14A"      ATOM PAIR        ENERGY CONTRIBUTION    RADIAL
 FREQ.      1705.84        C  3 --  C  4          +15.2% ( 54.0%)    87.5%
 T-DIPOLE    0.5968        C  4 --  C  5          +15.2% ( 54.0%)    87.4%
 TRAVEL      0.0577        C  1 --  C  6          +14.7% ( 53.1%)    87.8%
 RED. MASS   2.5012        C  1 --  C  2          +14.7% ( 53.1%)    87.7%
 EFF. MASS  11.8867

 VIBRATION   31   17A'      ATOM PAIR        ENERGY CONTRIBUTION    RADIAL
 FREQ.      1709.22        C  2 --  C  3          +17.1% ( 57.8%)   100.0%
 T-DIPOLE    1.0462        C  5 --  C  6          +17.1% ( 57.8%)   100.0%
 TRAVEL      0.0575        C  4 --  C  5          +10.1% ( 44.3%)    43.1%
 RED. MASS   2.3909        C  3 --  C  4          +10.1% ( 44.3%)    43.0%
 EFF. MASS  11.9191

 VIBRATION   32   18A'      ATOM PAIR        ENERGY CONTRIBUTION    RADIAL
 FREQ.      2673.18        C 12 --  H 13          +74.1% ( 88.6%)    99.7%
 T-DIPOLE    0.7024        C 12 --  H 15          +12.5% ( 36.5%)    80.3%
 TRAVEL      0.1325        C 12 --  H 14          +12.5% ( 36.5%)    83.8%
 RED. MASS   0.5943        C  4 --  C 12           +0.8% (  9.4%)     0.0%
 EFF. MASS   1.4361

 VIBRATION   33   15A"      ATOM PAIR        ENERGY CONTRIBUTION    RADIAL
 FREQ.      2693.96        C 12 --  H 15          +49.1% ( 72.2%)    98.6%
 T-DIPOLE    0.5639        C 12 --  H 14          +49.0% ( 72.2%)    97.6%
 TRAVEL      0.1320        C  4 --  C 12           +0.9% (  9.7%)     0.0%
 RED. MASS   0.4950        C 12 --  H 13           +0.8% (  9.4%)     0.1%
 EFF. MASS   1.4366

 VIBRATION   34   19A'      ATOM PAIR        ENERGY CONTRIBUTION    RADIAL
 FREQ.      2752.37        C  2 --  H  8          +27.9% ( 53.6%)   100.0%
 T-DIPOLE    0.2625        C  6 --  H 11          +27.9% ( 53.6%)   100.0%
 TRAVEL      0.1336        C  1 --  H  7          +20.3% ( 45.6%)   100.0%
 RED. MASS   0.2148        C  3 --  H  9          +10.9% ( 33.5%)    99.9%
 EFF. MASS   1.3726        C  5 --  H 10          +10.9% ( 33.5%)    99.9%

 VIBRATION   35   16A"      ATOM PAIR        ENERGY CONTRIBUTION    RADIAL
 FREQ.      2758.11        C  6 --  H 11          +33.4% ( 58.3%)   100.0%
 T-DIPOLE    0.2171        C  2 --  H  8          +33.4% ( 58.3%)   100.0%
 TRAVEL      0.1345        C  3 --  H  9          +15.7% ( 40.0%)    99.9%
 RED. MASS   0.2629        C  5 --  H 10          +15.7% ( 40.0%)    99.9%
 EFF. MASS   1.3523

 VIBRATION   36   20A'      ATOM PAIR        ENERGY CONTRIBUTION    RADIAL
 FREQ.      2763.34        C  1 --  H  7          +47.2% ( 69.3%)   100.0%
 T-DIPOLE    0.8573        C  3 --  H  9          +25.2% ( 50.7%)   100.0%
 TRAVEL      0.1336        C  5 --  H 10          +25.2% ( 50.7%)   100.0%
 RED. MASS   0.3392        C  1 --  C  2           +0.5% (  6.9%)    15.5%
 EFF. MASS   1.3676

 VIBRATION   37   17A"      ATOM PAIR        ENERGY CONTRIBUTION    RADIAL
 FREQ.      2765.42        C  5 --  H 10          +33.2% ( 58.2%)   100.0%
 T-DIPOLE    1.3298        C  3 --  H  9          +33.2% ( 58.2%)   100.0%
 TRAVEL      0.1328        C  2 --  H  8          +15.6% ( 39.9%)    99.9%
 RED. MASS   0.2623        C  6 --  H 11          +15.6% ( 39.9%)    99.9%
 EFF. MASS   1.3828

 VIBRATION   38   21A'      ATOM PAIR        ENERGY CONTRIBUTION    RADIAL
 FREQ.      2774.30        C  1 --  H  7          +30.2% ( 55.4%)   100.0%
 T-DIPOLE    0.6391        C  6 --  H 11          +20.6% ( 45.8%)   100.0%
 TRAVEL      0.1291        C  2 --  H  8          +20.6% ( 45.8%)   100.0%
 RED. MASS   0.2019        C  5 --  H 10          +12.2% ( 35.3%)   100.0%
 EFF. MASS   1.4581        C  3 --  H  9          +12.2% ( 35.3%)   100.0%

 VIBRATION   39   22A'      ATOM PAIR        ENERGY CONTRIBUTION    RADIAL
 FREQ.      2792.91        C 12 --  H 14          +37.5% ( 58.9%)    96.2%
 T-DIPOLE    0.5161        C 12 --  H 15          +37.4% ( 58.9%)    95.9%
 TRAVEL      0.1449        C 12 --  H 13          +22.7% ( 45.8%)    92.7%
 RED. MASS   0.3256        C  3 --  H  9           +0.6% (  7.6%)    99.3%
 EFF. MASS   1.1506

           FORCE CONSTANT IN CARTESIAN COORDINATES (Millidynes/A)

    ATOM   CHEMICAL       X               Y               Z
   NUMBER   SYMBOL  FORCE CONSTANT  FORCE CONSTANT  FORCE CONSTANT

      1       C       10.956029       10.240276        2.388664
      2       C       11.003740       10.245898        2.413089
      3       C        9.822592       11.293800        2.384722
      4       C       11.419156       11.279155        2.754727
      5       C       10.792039       10.324271        2.384804
      6       C        9.845971       11.403602        2.413156
      7       H        1.767752        3.434118        0.387080
      8       H        1.757471        3.436034        0.389679
      9       H        4.275979        0.943305        0.385862
     10       H        1.782184        3.437040        0.385921
     11       H        4.268567        0.924926        0.389691
     12       C        6.746346        7.271074        6.036807
     13       H        0.711601        1.040578        3.585114
     14       H        3.404942        0.757388        1.315303
     15       H        1.479279        2.690916        1.307439

 **********************
 *                    *
 * JOB ENDED NORMALLY *
 *                    *
 **********************



 TOTAL JOB TIME:             0.47 SECONDS

 == MOPAC DONE ==
